42
Total Energy                               R     -1.127658316914105E+03
C  -1.26996044 -1.35177827 -0.05323166
C  -2.36958979 -1.85760035 -1.00395341
C   1.26996015 -1.35177858 -0.05323100
N  -0.00000012 -1.82758662 -0.66290374
O  -0.00000077 -3.23823003 -0.69635537
C   3.80437529  0.39054412  0.17008962
C   2.36958997 -1.85760118 -1.00395176
C   0.00000014  2.30052778 -0.04455123
C   1.25417098  0.17557189 -0.02380346
C   0.00000003  0.87424811 -0.04175239
C  -1.25417100  0.17557216 -0.02380428
C  -1.54604537 -1.89665542  1.36698933
C  -3.80437509  0.39054428  0.17008990
O  -4.25893822 -0.08377117  1.18829302
O  -4.54918006  0.60399419 -0.91760176
C  -2.41520948  0.92813419  0.02114235
C  -2.39831869  2.34429115 -0.00692234
C   1.54604474 -1.89665567  1.36699000
C  -1.21770874  3.01649791 -0.04170177
C   1.21770924  3.01649776 -0.04170155
C   2.41520955  0.92813379  0.02114278
C   2.39831901  2.34429087 -0.00692191
O   4.54917994  0.60399486 -0.91760246
O   4.25893894 -0.08377217  1.18829198
H  -2.31964769 -1.34939147 -1.97050814
H  -3.33710711  2.88731633  0.01081495
H  -5.45909117  0.31847108 -0.74935250
H  -2.22267835 -2.92334984 -1.16750290
H  -1.22541567 -2.93817192  1.42429330
H   1.22541520 -2.93817224  1.42429412
H   2.22267783 -2.92335049 -1.16750160
H   3.37231942 -1.74082216 -0.59640915
H   5.45909112  0.31847141 -0.74935404
H   2.31964877 -1.34939197 -1.97050633
H   1.19439182  4.10099824 -0.05693087
H  -1.19439127  4.10099840 -0.05693086
H  -3.37231949 -1.74082049 -0.59641157
H  -2.61172074 -1.85754698  1.59402944
H  -1.02694120 -1.32816628  2.13887491
H   1.02694024 -1.32816645  2.13887531
H   2.61172006 -1.85754716  1.59403054
H   3.33710758  2.88731581  0.01081500

