55
Total Energy                               R     -1.020006752416873E+03
C  -1.09876294 -1.61989450 -0.29770464
C  -0.30240948 -2.02922924 -1.54839888
C  -2.15589709 -2.70130501  0.04111261
N  -0.10964311 -1.59143354  0.81681270
O   0.58916007 -2.64442242  0.96672039
C  -0.24190666 -0.66759861  1.97199062
C  -1.48595004 -1.05833859  2.79265610
C   1.00115947 -0.80818177  2.84386601
C  -0.42118461  0.73020222  1.40972636
C  -1.20680092  0.89585732  0.22989912
C  -1.68315573 -0.22224887 -0.52316591
C  -2.59955221  0.00487030 -1.54581829
N  -3.15112631 -0.99782024 -2.33937400
C  -2.95415856  1.33749926 -1.89757734
C  -2.41201761  2.40963228 -1.26195906
C  -1.52940718  2.22215004 -0.17125590
C  -0.99135922  3.33076549  0.52390191
C  -0.18528823  3.14032741  1.61169904
C   0.07578780  1.83093709  2.06380427
H   0.10400286 -3.03462058 -1.43413630
H   0.52038641 -1.33252132 -1.72010944
H  -0.94924057 -2.02135438 -2.42456527
H  -1.71822875 -3.44722658  0.70579357
H  -2.47126378 -3.24320663 -0.85301707
H  -3.03755723 -2.28061965  0.52610468
H  -1.42704697 -2.10776016  3.09305213
H  -2.41033454 -0.90271198  2.23405318
H  -1.52692992 -0.43960981  3.69200908
H   1.10654922 -1.83387718  3.19396056
H   0.90718414 -0.17325817  3.72465161
H   1.90699135 -0.52589438  2.30306166
H  -3.98303651 -0.70878499 -2.83343555
H  -3.28797388 -1.89442844 -1.90230791
H  -3.65365416  1.48321820 -2.71553498
H  -2.66795848  3.41894294 -1.56904250
H  -1.23975098  4.33090241  0.18130219
H   0.23320099  3.98556639  2.14742103
H   0.67466204  1.71069679  2.95786750
N   3.49340233  0.17528384 -1.02073769
C   3.49400969 -1.18425521 -0.40792966
C   2.37455938  0.97392954 -0.44438553
C   4.78827022  0.85261719 -0.72979410
C   3.31215472  0.05759679 -2.49508701
H   1.43776629  0.47034777 -0.67065200
H   3.62822802 -1.08260448  0.66754361
H   2.54373267 -1.66669247 -0.62538338
H   4.31405251 -1.75837990 -0.83608041
H   4.13751329 -0.52250045 -2.90433615
H   2.36657700 -0.44418225 -2.69294063
H   3.30470392  1.05691824 -2.92657016
H   4.90147673  0.93926230  0.34958965
H   5.59727066  0.25503885 -1.14644846
H   4.77677059  1.84067498 -1.18648842
H   2.51672987  1.04293217  0.63147974
H   2.38492146  1.96690297 -0.89099022

