30
Total Energy                               R     -5.589076347141141E+02
C  -0.24093761  1.18968108  0.10734171
C  -0.89558460  2.06809102 -0.94743672
C   2.44640207 -1.00177737  0.79500476
N   0.91176184  0.45727368 -0.46173802
O   1.79955093  1.03522573 -1.16341087
C  -1.10808607  0.02651056  0.61209706
C   0.24332160  2.04791409  1.28276219
C  -2.96336541 -1.31042488 -0.01383553
C  -0.08711608 -1.03680443  1.04166057
O  -1.95065325 -0.41960139 -0.43897383
C   1.04006200 -1.91561165 -1.07344604
C   1.10315028 -0.91155838  0.07723073
H  -0.22908047  2.88966032 -1.21870094
H  -1.14372805  1.50869145 -1.84946353
H   1.82254804 -1.70871620 -1.80842756
H   1.00220266  2.75382340  0.93695215
H   3.27617175 -0.88133960  0.09441245
H   2.52792781 -0.23696217  1.57165817
H  -0.59421829  2.61653455  1.69379391
H   0.67597338  1.44334213  2.08280514
H  -1.73132601  0.35175606  1.45242842
H  -1.81478978  2.49823471 -0.54280116
H  -3.57429899 -0.85725884  0.77616538
H  -3.59206032 -1.51486246 -0.88060931
H  -0.51035411 -2.04132761  1.02785187
H   0.07005921 -1.88421976 -1.57447508
H  -2.55198144 -2.25662597  0.35371843
H   1.19438152 -2.92577134 -0.68573387
H   2.53936188 -1.98309038  1.26740136
H   0.23261991 -0.83389896  2.06599551

