30
Total Energy                               R     -5.587222049341163E+02
C  -0.06640091 -1.02931333  1.07298369
C   1.01335617 -1.86862665 -1.09412845
C  -2.95217280 -1.31758332 -0.00375976
N   0.92221561  0.47756245 -0.44859541
O  -1.92835957 -0.43023035 -0.42037523
C   1.10948548 -0.91522272  0.10115743
C   0.30637548  2.01787292  1.29116787
C   2.48620753 -0.97252314  0.75490140
C  -0.26300963  1.19396061  0.11847298
O   1.64998724  0.95942130 -1.23478486
C  -0.89036096  2.08919710 -0.93081394
C  -1.10291777  0.01692497  0.63233756
H   1.14804316 -2.87990442 -0.70751761
H   0.03841552 -1.80630222 -1.57839570
H  -3.56740231 -1.52057396 -0.87954482
H  -0.47993500 -2.03621125  1.05756350
H  -2.54500462 -2.26194641  0.37116510
H   0.25992382 -0.82152482  2.09263003
H   2.57920573 -0.22244404  1.54249905
H   0.78170243  1.39817598  2.05151999
H   1.02821640  2.74347238  0.91427913
H   3.27696533 -0.83194613  0.01640511
H   2.59469686 -1.96271115  1.20076565
H   1.80113883 -1.65933061 -1.81950542
H  -0.53408373  2.54690753  1.74201853
H  -1.14727476  1.53740582 -1.83409453
H  -0.21687535  2.90832712 -1.18519013
H  -1.80253880  2.51175941 -0.50677809
H  -3.56880591 -0.85622380  0.77569677
H  -1.71829380  0.34848713  1.47401945

