28
Total Energy                               R     -5.575253876539729E+02
C  -1.35539784 -0.25217400  0.01155570
C   1.61035773 -0.24127264  1.52058519
C  -1.65003793 -0.18827974  1.52108181
N  -0.03463221 -0.99926162 -0.13129900
O   0.12747845  3.00176599  0.04878517
C   0.07246638  1.85047894 -0.32910912
C  -1.22786937  1.14715442 -0.60711998
C   1.29782417  1.04041444 -0.65375319
C   2.35604654 -1.24534372 -0.65680504
C  -2.42720214 -1.06468646 -0.69779790
O  -0.07454925 -2.16345050 -0.29402694
C   1.33250727 -0.34200170  0.01073812
H  -1.01889289  0.52495442  2.04723850
H   2.66674936  0.01431834  1.61769640
H   1.02797488  0.53944146  2.00618932
H  -2.68580784  0.14265861  1.61296132
H  -1.55775295 -1.17403953  1.97929932
H  -2.62775831 -2.00508069 -0.18505624
H  -2.06851920  1.74518614 -0.25577058
H  -3.33979596 -0.46667239 -0.68824719
H  -2.15469630 -1.26303662 -1.73597857
H   2.19965989  1.57480905 -0.35575428
H  -1.30121942  1.06117792 -1.69734281
H   1.31449503  0.91573597 -1.74227959
H   3.30802283 -0.71254040 -0.64710738
H   2.08693026 -1.45503439 -1.69358740
H   2.48181215 -2.18229390 -0.11452022
H   1.43562143 -1.19701376  2.01703299

