64
Total Energy                               R     -1.766454117469249E+03
C   0.15764048  0.45146870 -0.49646252
C   0.93287361  1.76176781 -0.36555573
C   0.41386328 -0.15975825 -1.88715130
N   0.66077574 -0.48019574  0.54800195
O   1.91116170 -0.46758321  0.78437886
C  -0.05781466 -1.70327326  0.99027670
C   0.53708359 -2.92077631  0.26452723
C   0.18033653 -1.82975017  2.50365575
C  -1.55159619 -1.58932008  0.73392960
C  -2.14493090 -0.42557761  0.17323733
C  -1.33986181  0.64415693 -0.31966606
C  -1.93682520  1.79710445 -0.75203806
C  -3.34186490  1.93738773 -0.73159179
C  -3.99883821  3.19875730 -1.16049911
O  -5.20148021  3.36577378 -1.19934830
O  -3.13493159  4.15602188 -1.50540813
C  -4.13799350  0.89858049 -0.33124346
C  -3.56744731 -0.32071341  0.10382050
C  -4.36320546 -1.42755482  0.52568720
C  -5.84972137 -1.47217619  0.44045347
O  -6.55317585 -1.98896760  1.28416357
O  -6.34724961 -0.94383958 -0.67806891
C  -3.75519814 -2.54881748  1.03145416
C  -2.36027637 -2.62465425  1.13864332
H   2.00246402  1.57185358 -0.41114601
H   0.70641057  2.26734027  0.57553227
H   0.68563506  2.42829619 -1.19150329
H   1.47927841 -0.35945550 -2.01987765
H   0.09677914  0.54966061 -2.65468930
H  -0.14307678 -1.08749215 -2.03037335
H   1.60845338 -2.97970186  0.46038264
H   0.37410461 -2.86729106 -0.81283129
H   0.07722588 -3.83773026  0.63577182
H   1.24954683 -1.87033540  2.71330287
H  -0.27413967 -2.74644572  2.88063242
H  -0.25389894 -0.98085635  3.03700087
H  -1.34249409  2.61549697 -1.13175554
H  -3.62290649  4.94682895 -1.77496057
H  -5.21138293  1.02234084 -0.34041561
H  -7.31290176 -1.01040451 -0.66521363
H  -4.35660329 -3.39163252  1.35198097
H  -1.93154817 -3.52214248  1.56815873
N   4.73974440 -1.44390423 -1.98089917
C   4.36566705 -1.25408931 -3.41080724
C   4.64085611 -0.13999150 -1.26357937
C   3.81256300 -2.42844707 -1.35449274
C   6.13731998 -1.95242716 -1.89319773
H   5.33653664  0.56042089 -1.72227315
H   3.34410387 -0.88004094 -3.45668070
H   5.04984852 -0.53552472 -3.85880363
H   4.43873796 -2.21235541 -3.92255252
H   6.19789193 -2.90350389 -2.41931583
H   6.80345307 -1.22475298 -2.35353965
H   6.39486090 -2.08603389 -0.84389450
H   2.79532981 -2.05727470 -1.44947035
H   3.91407742 -3.38097394 -1.87213963
H   4.07755950 -2.53935756 -0.30473602
H   3.62242000  0.22959997 -1.35331930
H   4.89442798 -0.29473536 -0.21775960
B   4.37495857  1.94360787  1.96173592
F   4.72391031  0.58192388  2.08292257
F   4.42384048  2.32643817  0.60544601
F   3.07362094  2.14343537  2.46464803
F   5.28873931  2.72645167  2.70075582

