64
Total Energy                               R     -1.766569897132633E+03
C  -0.05535586  0.12171521 -1.24835938
C  -0.50439665  0.85045206 -2.52088512
C  -0.86120492  0.69879068 -0.06073528
N  -0.22901056 -1.32969693 -1.50266552
O  -1.56889431 -1.60786705 -1.84971125
C   0.20256986 -2.25433968 -0.42773488
C  -0.74552644 -2.36458485  0.78921629
C   0.28506211 -3.64821172 -1.07903238
C   1.58921090 -1.86459848  0.06739422
C   2.16704540 -0.60056079 -0.24232763
C   1.41793744  0.37758289 -0.96511364
C   2.01414887  1.56421714 -1.30046076
C   3.35742586  1.82994032 -0.95136648
C   4.02311166  3.09540611 -1.35015305
O   5.17778153  3.37613397 -1.09401089
O   3.22643698  3.92319512 -2.03198210
C   4.07954515  0.92472670 -0.22070922
C   3.49698073 -0.29927244  0.18451270
C   4.20648959 -1.26084518  0.96591719
C   5.56979880 -1.05354272  1.52309723
O   6.40277829 -1.93470736  1.60437956
O   5.79349756  0.17741379  1.98781599
C   3.61172836 -2.46143289  1.26669153
C   2.31561519 -2.75558807  0.82398002
H  -1.55651464  0.64393317 -2.71131373
H   0.07484129  0.52416909 -3.38962032
H  -0.40162604  1.93206618 -2.42259205
H  -1.87808483  0.30427554 -0.06093620
H  -0.91879538  1.78745583 -0.14363940
H  -0.40263883  0.47126984  0.90265182
H  -1.75913139 -2.59313127  0.45697157
H  -0.77462440 -1.45819007  1.39194293
H  -0.41486262 -3.18074671  1.43692807
H  -0.68727922 -3.91607519 -1.49377325
H   0.55867159 -4.42025875 -0.35775705
H   1.02099782 -3.65539146 -1.88768519
H   1.46311442  2.32274019 -1.83703757
H   3.71714894  4.72499498 -2.26004240
H   5.10231985  1.15301173  0.04233346
H   6.69370023  0.23111879  2.33991638
H   4.14503529 -3.19149382  1.86512189
H   1.89450182 -3.71655745  1.09273974
N  -5.22875989 -0.53204932 -1.13632286
C  -4.64885056  0.83383989 -1.27849439
C  -6.70688262 -0.42945555 -0.98688053
C  -4.89830216 -1.33619985 -2.34742306
C  -4.65750841 -1.19522959  0.07105888
H  -6.92728609  0.16694577 -0.10293912
H  -5.09790537  1.31324297 -2.14675331
H  -4.86767479  1.40304849 -0.37766652
H  -3.57333143  0.74342490 -1.41719016
H  -3.57692257 -1.25001773 -0.04319225
H  -4.92060351 -0.60794405  0.94735843
H  -5.07745296 -2.19710632  0.14639435
H  -5.31335354 -0.83637123 -3.22124292
H  -3.81395768 -1.40879892 -2.42779247
H  -5.33747958 -2.32655777 -2.23805646
H  -7.11860011  0.04787591 -1.87450786
H  -7.11667766 -1.43188853 -0.87533221
B  -3.86907338  1.64184326  2.58255742
F  -3.74654999  2.34114668  3.80186064
F  -3.42899952  2.46235819  1.52448080
F  -3.08872028  0.46937497  2.63401101
F  -5.22355501  1.29753797  2.37539860

