64
Total Energy                               R     -1.766274342959785E+03
C  -1.40222335 -1.94507630  1.16230036
C  -1.71538590 -0.98857669  2.31993708
C  -1.63322564 -3.40482959  1.60988437
N  -2.44458795 -1.68583246  0.09787911
O  -3.54936460 -1.49010482  0.44735733
C  -2.14512344 -1.75584286 -1.37910514
C  -1.95109694 -3.25625763 -1.70038435
C  -3.34844776 -1.21229046 -2.12726853
C  -0.84044030 -1.01499044 -1.61395396
C   0.21925513 -1.15030513 -0.67595955
C  -0.00600680 -1.70127568  0.61407510
C   1.04784676 -1.90948949  1.46383553
C   2.35196249 -1.52687861  1.09286494
C   3.50146891 -1.70379277  2.01834347
O   4.63933494 -1.36830061  1.76129537
O   3.16411464 -2.26807356  3.17834430
C   2.58131276 -0.91426380 -0.11163268
C   1.52785490 -0.71465327 -1.02999097
C   1.70654078 -0.04077019 -2.27685688
C   3.01430348  0.50352875 -2.74396785
O   3.12899955  1.59362270 -3.26315762
O   4.04057113 -0.32828093 -2.57951863
C   0.63410663  0.17678756 -3.09957227
C  -0.63556374 -0.33988552 -2.78538033
H  -2.70384712 -1.18970878  2.73132790
H  -1.65726433  0.04883822  1.99582528
H  -0.97929895 -1.15628174  3.10477599
H  -2.67624468 -3.54515108  1.89687354
H  -1.01075405 -3.57459784  2.48834380
H  -1.35784162 -4.12633965  0.84379394
H  -2.81556049 -3.83422025 -1.36952796
H  -1.03908227 -3.66612527 -1.27020170
H  -1.87379206 -3.32349059 -2.78641969
H  -4.24178257 -1.78402816 -1.87858616
H  -3.17518472 -1.33195133 -3.19530489
H  -3.51751057 -0.15836855 -1.90661653
H   0.88617736 -2.33324142  2.44643819
H   3.94984412 -2.34731256  3.73710551
H   3.58066303 -0.57860618 -0.34885414
H   4.85202414  0.09105254 -2.90150903
H   0.76722885  0.71423252 -4.03097758
H  -1.43248817 -0.21041453 -3.50515629
N   1.21240980  3.00696690  1.03728731
C   0.11947394  4.00222948  0.84765967
C   1.88156389  2.75946795 -0.27096876
C   2.20608195  3.53400301  2.01355248
C   0.64057552  1.72959486  1.55228721
H   1.14105486  2.37769083 -0.97121445
H   0.55340433  4.92721012  0.47165385
H  -0.59445370  3.60362911  0.13018124
H  -0.36651205  4.17679350  1.80559191
H   0.14233158  1.92949281  2.49916703
H  -0.07201235  1.35106260  0.82395592
H   1.45416278  1.02237204  1.69863364
H   2.62059302  4.46323114  1.62670866
H   1.70172786  3.71338266  2.96159461
H   2.99545794  2.79514473  2.14199028
H   2.29415471  3.69883599 -0.63516808
H   2.67778475  2.03162716 -0.12431123
B  -3.15880747  2.02954535  0.43945173
F  -4.39648405  1.35791304  0.46535848
F  -2.76845259  2.34862111  1.75453353
F  -2.18403907  1.18972087 -0.14955460
F  -3.27346207  3.20930864 -0.32103703

