64
Total Energy                               R     -1.766280381553692E+03
C   0.40958952  1.34902987 -0.91762429
C   1.08923882  2.40048238 -0.03592947
C   0.79528371  1.57687669 -2.38077402
N   0.95919652  0.00801532 -0.40160013
O   2.34899721  0.00717703 -0.57400002
C   0.39788057 -1.30859479 -0.96833213
C   0.75186085 -1.47199478 -2.44738877
C   1.08733426 -2.40063626 -0.14467399
C  -1.10937891 -1.24382732 -0.72454076
C  -1.76944597  0.02156479 -0.56005333
C  -1.10123340  1.28536566 -0.69729987
C  -1.84847568  2.44585488 -0.61215390
C  -1.35598985  3.82970315 -0.90805957
O  -0.99792646  4.20871314 -2.00054686
O  -1.45442196  4.63601340  0.14691706
C  -3.22900933  2.42197306 -0.30860327
C  -3.87066808  1.23764290 -0.13494762
C  -3.16765154  0.02314432 -0.28018301
C  -3.87789844 -1.18985851 -0.15733612
C  -3.24324470 -2.37446547 -0.35220711
C  -1.86327085 -2.40061109 -0.65950050
C  -1.38223481 -3.78081113 -0.98880242
O  -1.04738057 -4.14122580 -2.09484341
O  -1.46417504 -4.60495603  0.05354433
H   2.16505948  2.38719404 -0.20066868
H   0.87131365  2.25137174  1.02325920
H   0.77478560  3.40094642 -0.31285573
H   0.73083477  2.64547656 -2.57666823
H   0.12820361  1.07356011 -3.07516170
H   1.82373041  1.26622692 -2.56581364
H   1.77809840 -1.15965784 -2.64222356
H   0.07151953 -0.93493668 -3.10308315
H   0.67476781 -2.53070344 -2.68827030
H   2.16287651 -2.36963716 -0.30840617
H   0.78263313 -3.38660649 -0.47888917
H   0.86836942 -2.31206104  0.92055073
H  -1.21570724  5.53940858 -0.10856015
H  -3.76999027  3.35750503 -0.22761561
H  -4.92964855  1.20826923  0.09614749
H  -4.93666521 -1.15834158  0.07452069
H  -3.78952826 -3.30822553 -0.28762589
H  -1.23593463 -5.50532178 -0.22163854
N   4.51577116 -0.01231462  0.22925265
C   5.32464862 -0.04692911  1.48964723
C   3.08989872 -0.02104557  0.64256782
C   4.84133460  1.23427480 -0.53320150
C   4.83916272 -1.21661705 -0.59973001
H   2.90096156 -0.93273822  1.20659160
H   5.08377508  0.83164903  2.08542692
H   5.08610228 -0.95863750  2.03432269
H   6.37568045 -0.03752512  1.21072876
H   5.90403009 -1.19122082 -0.82023250
H   4.59266569 -2.10814223 -0.02615856
H   4.26432248 -1.18219004 -1.52150834
H   4.59472470  2.09408050  0.08689604
H   5.90654844  1.21949124 -0.75315140
H   4.26796199  1.24985811 -1.45644160
H   2.90147114  0.86428968  1.24722276
H   0.74845110 -0.01407017  0.61648009
B  -0.79823284 -0.07947895  3.01687483
F   0.46983831 -0.18734816  2.34757158
F  -1.59403652 -1.17188313  2.65009791
F  -0.56236939 -0.09140422  4.39950863
F  -1.40700499  1.12388839  2.63849688

