51
Total Energy                               R     -1.271861900760924E+03
C   1.22292361 -1.39926775  1.18679837
C   0.54219537 -0.36158448  2.07670825
C   0.59371835 -2.77359741  1.41623692
N   1.06282709 -1.01191029 -0.23528328
O  -0.07572878 -0.99899940 -0.79451769
C   2.31291150 -1.01387007 -1.02843052
C   2.50170370 -2.39546629 -1.66606628
C   2.25548774  0.05420925 -2.11149096
C   3.37492259 -0.79487755  0.08174518
C   3.71919772  0.66480783  0.25449527
O   3.13232584  1.45735687  0.95909696
O   4.77591953  1.01957801 -0.48490834
C   2.75568792 -1.42630155  1.34414837
H  -0.52326364 -0.29496653  1.84492804
H   0.99476674  0.62293615  1.95814297
H   0.64299789 -0.66208297  3.12267085
H  -0.48624388 -2.73801376  1.25542798
H   0.77589020 -3.08635989  2.44758839
H   1.02349109 -3.52407720  0.74893474
H   1.64201489 -2.63611657 -2.29606663
H   2.61122318 -3.17806188 -0.91233048
H   3.39849046 -2.39037134 -2.28977110
H   1.43855162 -0.15814225 -2.80349775
H   3.18869601  0.05070429 -2.67768258
H   2.10436032  1.05504678 -1.70174970
H   4.29226172 -1.30876083 -0.20335941
H   4.94419632  1.96629501 -0.37385331
H   3.06998728 -0.90779726  2.24996071
H   3.10191699 -2.45787587  1.41981122
N  -1.24630343  2.88837934  0.01845929
C  -0.99503528  3.25322743  1.44123054
C   0.02280551  2.41275281 -0.60074547
C  -2.26426869  1.79979952 -0.04309990
C  -1.74592586  4.08104635 -0.72152752
H   0.75212613  3.22069620 -0.57040388
H  -0.64022449  2.37063116  1.97037674
H  -0.24204903  4.03905217  1.47220599
H  -1.92587520  3.60691053  1.88142985
H  -2.67723315  4.41190384 -0.26466801
H  -0.99643735  4.86852778 -0.66132340
H  -1.91527818  3.80181405 -1.76010694
H  -1.88444922  0.93704843  0.49885719
H  -3.18289417  2.15946927  0.41571493
H  -2.43670149  1.54376717 -1.08621998
H   0.38266930  1.55890931 -0.03369965
H  -0.17958453  2.12291876 -1.63017304
B  -4.00877330 -1.28173271 -0.18869803
F  -4.82266253 -0.13618496 -0.05801501
F  -3.13549826 -1.36452788  0.91543869
F  -4.82325608 -2.43365436 -0.23027823
F  -3.26117010 -1.19334133 -1.38017508

