51
Total Energy                               R     -1.271674245683610E+03
C   1.20562216 -1.04495374  1.52602562
C   0.89837916  0.25026339  2.27946892
C   0.41729948 -2.21444547  2.11849033
N   0.72892891 -0.85710204  0.11080291
O  -0.36856460 -0.54306567 -0.15651806
C   1.77113930 -1.12971798 -0.93472578
C   1.55369726 -2.60660587 -1.31722333
C   1.55710223 -0.21824230 -2.12815757
C   3.07496027 -0.96547750 -0.12338687
C   3.65442359  0.42881336 -0.26249674
O   3.35790084  1.38220845  0.42081584
O   4.54295035  0.49520023 -1.25259770
C   2.69986446 -1.33173737  1.32670716
H  -0.17811017  0.41186308  2.33995264
H   1.38178114  1.10775691  1.81397736
H   1.29044832  0.13234522  3.29079776
H  -0.64512835 -1.97514294  2.17811663
H   0.79848606 -2.37825217  3.12809369
H   0.55739841 -3.12826432  1.54002835
H   0.54668351 -2.74699256 -1.71224418
H   1.71351440 -3.28177823 -0.47622617
H   2.28173387 -2.83768062 -2.09582309
H   0.58439991 -0.40666985 -2.58319212
H   2.33007227 -0.44260313 -2.86384548
H   1.62603303  0.83629077 -1.85631185
H   3.80768459 -1.66637132 -0.51954507
H   4.87326316  1.40174122 -1.33611978
H   3.29443070 -0.77312855  2.04721579
H   2.89340875 -2.39278617  1.48103252
N  -1.35969453  3.24372870  0.00021700
C  -0.89180201  3.99379460  1.20002045
C  -0.17947087  2.70907048 -0.73718641
C  -2.23280695  2.11359556  0.42958651
C  -2.13217471  4.15444970 -0.89088206
H   0.41539238  3.54621783 -1.09880552
H  -0.34462143  3.30941134  1.84680025
H  -0.24212384  4.80405016  0.87337770
H  -1.75888144  4.39412467  1.72251794
H  -3.00154312  4.52032538 -0.34690450
H  -1.49287371  4.98629563 -1.18097559
H  -2.44670150  3.59618070 -1.77107551
H  -1.65452477  1.45491901  1.07189349
H  -3.08330262  2.51861822  0.97517764
H  -2.57249704  1.57803352 -0.45425097
H   0.41057082  2.10392129 -0.05274659
H  -0.53309115  2.10895504 -1.57348004
B  -3.29347506 -1.77925232 -0.29628216
F  -3.14290324 -0.90217870 -1.39096774
F  -3.27761276 -1.04222282  0.90599719
F  -4.52183055 -2.46386856 -0.40992045
F  -2.23597127 -2.71385107 -0.29335409

