52
Total Energy                               R     -1.197637817087548E+03
C   1.51583690 -0.32093073 -1.17023261
C   0.25460281 -0.93542746 -1.75929269
C   1.74359256  1.08026830 -1.76573835
N   1.27625912 -0.12670120  0.32226733
O   0.16476428 -0.07852693  0.70780106
C   2.39634002  0.03496185  1.34275960
C   2.81144724  1.51653146  1.30930066
C   1.82289690 -0.31132633  2.70926614
C   3.54060888 -0.91534850  0.96900423
C   3.93272992 -0.89566105 -0.50232626
O   5.00499289 -1.78794055 -0.75074468
C   2.72162545 -1.25025489 -1.35451973
H  -0.58527679 -0.24205286 -1.73241849
H  -0.01502616 -1.86283989 -1.24993627
H   0.46969127 -1.17109198 -2.80298052
H   0.95506226  1.76767573 -1.46025111
H   1.69662240  0.95866846 -2.84951146
H   2.71315990  1.50353601 -1.51486983
H   1.94270178  2.16975397  1.39761139
H   3.37858550  1.78503542  0.42134715
H   3.45131749  1.67180813  2.18008652
H   1.08410359  0.41808403  3.04217928
H   2.65391438 -0.30206705  3.41661245
H   1.37903624 -1.30922586  2.71786185
H   3.24953242 -1.93662200  1.24107992
H   4.39322999 -0.63820987  1.59271707
H   4.32297569  0.08410521 -0.78144439
H   4.72668852 -2.68312427 -0.52561099
H   2.41310220 -2.27576188 -1.12032986
H   2.98053630 -1.21739770 -2.41514448
N  -3.50423503 -1.98688332  0.14944910
C  -2.44546542 -2.74842317  0.87123812
C  -4.83876335 -2.32930956  0.71929128
C  -3.25667045 -0.52348299  0.30290042
C  -3.47428876 -2.34272192 -1.29797661
H  -5.00497893 -3.39890079  0.60196935
H  -2.46131032 -2.46059309  1.92101242
H  -2.64920753 -3.81302476  0.76884022
H  -1.48043522 -2.51070837  0.42769991
H  -2.49609545 -2.08523193 -1.70054788
H  -3.65546780 -3.41155860 -1.39921456
H  -4.25183900 -1.77900648 -1.81084733
H  -3.25320359 -0.27950332  1.36337147
H  -2.29638786 -0.28513294 -0.14596460
H  -4.05045981  0.01928102 -0.20634943
H  -4.84808268 -2.06033697  1.77411925
H  -5.60092024 -1.76832836  0.18139220
B  -1.59358268  2.84006754 -0.15966677
F  -1.68038666  2.00637844 -1.29354445
F  -2.63596293  2.53030305  0.73684159
F  -0.35030422  2.64058431  0.48025801
F  -1.70032810  4.18784695 -0.56073924

