52
Total Energy                               R     -1.197912957782958E+03
C  -0.37023542  1.81111571 -1.16854679
C  -1.04864304  1.15262720 -2.37493714
C  -0.71984162  3.30861571 -1.25723510
N  -0.92137578  1.17219375  0.06841745
O  -0.84170973 -0.22683597 -0.08701341
C  -0.19909613  1.54187831  1.32680248
C  -0.50889650  2.98192639  1.77651664
C  -0.71865664  0.63407246  2.44688788
C   1.32364969  1.33389332  1.18672237
C   1.90914804  2.03592150 -0.03145495
O   3.31109588  1.79302277 -0.15274722
C   1.15561503  1.60552979 -1.28349757
H  -2.13748060  1.26915958 -2.31666735
H  -0.82316085  0.08916589 -2.41955998
H  -0.70865917  1.62886969 -3.30095062
H  -1.75945993  3.47926729 -0.96058011
H  -0.61106337  3.64591157 -2.29284330
H  -0.08743952  3.95686014 -0.65365528
H  -1.57628189  3.19816290  1.66705073
H   0.04650095  3.75105892  1.24313551
H  -0.25502552  3.09395476  2.83531890
H  -1.80364987  0.74402470  2.56174685
H  -0.25012660  0.90906830  3.39804101
H  -0.50383770 -0.41112427  2.23470514
H   1.51296498  0.26001353  1.08146349
H   1.83572397  1.67529985  2.09441726
H   1.84258196  3.12064195  0.09185572
H   3.45019307  0.84734263 -0.29181194
H   1.34525486  0.53789925 -1.44332646
H   1.54319436  2.14662750 -2.15516168
N  -3.83835160 -1.57967518 -0.02995960
C  -4.00428293 -0.10341332  0.12027161
C  -2.99254800 -2.08140575  1.09277951
C  -5.16403686 -2.24869305 -0.01565136
C  -3.13277304 -1.85341331 -1.31641932
H  -2.03828790 -1.55045516  1.01854933
H  -4.51120806  0.09110359  1.06561960
H  -3.00957005  0.34880198  0.10608614
H  -4.61349268  0.26097020 -0.70695761
H  -3.74403078 -1.47305530 -2.13469552
H  -2.17191174 -1.33233685 -1.25586065
H  -3.00267222 -2.93085880 -1.41734744
H  -5.65766291 -2.03239187  0.93100042
H  -5.76055660 -1.86737984 -0.84355070
H  -5.01814213 -3.32261653 -0.12433196
H  -3.50029907 -1.86411544  2.03250385
H  -2.86589149 -3.15763386  0.97700396
B   3.53628437 -2.09211221 -0.05333356
F   4.03088806 -0.91941039 -0.68816879
F   4.45869235 -3.13852278 -0.24777463
F   3.38317981 -1.84269722  1.32237665
F   2.29820220 -2.43722843 -0.62188644

