44
Total Energy                               R     -1.363442781343621E+03
C   1.14241884 -1.82672919 -0.95112195
C   1.48231108 -1.23676422 -2.32624459
C   1.38646097 -3.35020712 -0.95610281
N   2.15292620 -1.26782557  0.02564198
O   3.26952302 -1.17015430 -0.32971965
C   1.78949670 -0.90244022  1.44118173
C   1.49143505 -2.23321529  2.16742427
C   2.98490355 -0.21911896  2.07643120
C   0.52249204 -0.06570071  1.35868911
C  -0.51513710 -0.48083669  0.47899227
C  -0.26656617 -1.43205051 -0.54536969
C  -1.30463730 -1.89476978 -1.31298653
C  -2.60593347 -1.40370639 -1.12843776
C  -2.86667095 -0.42626856 -0.19914877
C  -4.27518521  0.01953618 -0.02130395
O  -4.78676901  0.30138437  1.04250845
O  -4.95706375  0.04790821 -1.16962871
C  -1.81357268  0.08256939  0.61909589
C  -1.98627336  1.15896428  1.52855124
C  -0.93936174  1.60759688  2.28313399
C   0.31786022  0.97302898  2.22454811
H   2.49333311 -1.50893186 -2.62736228
H   1.37528154 -0.15266239 -2.32075556
H   0.78484962 -1.65711886 -3.04963452
H   2.43700487 -3.55465164 -1.16680089
H   0.78736388 -3.77358079 -1.76198112
H   1.09706679 -3.82210496 -0.01925957
H   2.34305811 -2.91184738  2.09705890
H   0.59244136 -2.72480658  1.79951446
H   1.33093337 -1.97403181  3.21483939
H   3.85486613 -0.87542837  2.05371271
H   2.75330328 -0.02318020  3.12239341
H   3.22633462  0.72100622  1.58034105
H  -1.13384192 -2.62086130 -2.09876764
H  -3.40600014 -1.80052641 -1.74085580
H  -5.87985817  0.27803784 -0.98930698
H  -2.95234990  1.63634095  1.61798546
H  -1.07796123  2.44290883  2.96015429
H   1.10333275  1.31231639  2.88715429
B   1.45286165  2.59151331 -1.03523146
F   2.01586691  3.28813085 -2.12536826
F   0.17735030  2.11516271 -1.39230751
F   2.29192292  1.50359691 -0.70152974
F   1.34444714  3.45687624  0.07131245

