56
Total Energy                               R     -1.153339092195334E+03
C   0.41499629 -0.82583973 -0.38887518
C   0.94838611 -1.96262103 -1.27093974
C   0.93598584 -1.05250099  1.05154724
N   0.82524110  0.44547868 -1.03201540
O   2.22936313  0.49129823 -1.16728944
C   0.34929147  1.70128832 -0.40434819
C   1.09781888  2.13002345  0.87880994
C   0.56281268  2.80132878 -1.46163089
C  -1.13991574  1.60271906 -0.09177677
C  -1.82411191  0.35364182 -0.10247948
C  -1.10455811 -0.85936274 -0.32651169
C  -1.79742077 -2.04358869 -0.38644696
C  -3.18980785 -2.08687585 -0.21112216
C  -3.90477883 -0.94937710  0.07155792
C  -5.34855113 -1.09430528  0.37806191
O  -5.96680760 -0.45259530  1.20506888
O  -5.93660862 -2.05960692 -0.34189949
C  -3.23473666  0.31491280  0.13408258
C  -3.91958875  1.52777642  0.38717424
C  -3.23197808  2.71057651  0.43738882
C  -1.84802908  2.74622205  0.20257368
H   2.03450746 -1.91048837 -1.32669937
H   0.54800720 -1.89460329 -2.28664751
H   0.69368680 -2.94199040 -0.86380262
H   1.98936739 -0.77558560  1.12650248
H   0.84278127 -2.10866600  1.31958820
H   0.37333346 -0.48016780  1.79053986
H   2.17524611  2.12017195  0.70892255
H   0.87578631  1.49156375  1.73295592
H   0.80963980  3.14961063  1.14811819
H   1.61463957  2.84307388 -1.74683064
H   0.28367771  3.78733834 -1.08595608
H  -0.02938901  2.59515714 -2.35753044
H  -1.28208610 -2.98061541 -0.55079876
H  -3.69288939 -3.04528187 -0.25947120
H  -6.85553786 -2.15366133 -0.05439800
H  -4.98915047  1.52224620  0.54444460
H  -3.76125303  3.63501423  0.64449990
H  -1.34450546  3.70518861  0.24082967
N   5.55311273 -0.54866323  0.40874608
C   4.82347016 -1.84864853  0.41523642
C   4.90871486  0.38769415  1.37389872
C   6.97229335 -0.77138268  0.80543269
C   5.50205131  0.03775508 -0.96244226
H   3.88167734  0.55969356  1.05757679
H   4.85296545 -2.26202110  1.42194681
H   3.79452035 -1.67089948  0.11061399
H   5.31091732 -2.52587389 -0.28405252
H   5.98401687 -0.65311282 -1.65246013
H   4.45747845  0.18535278 -1.23707329
H   6.03150147  0.98910955 -0.95415416
H   6.99343097 -1.19652075  1.80737467
H   7.43030136 -1.45835864  0.09586297
H   7.49326610  0.18453523  0.79214521
H   4.93063611 -0.06187804  2.36519684
H   5.46330988  1.32457782  1.37345675

