55
Total Energy                               R     -1.169258547250171E+03
C   1.74076274 -0.01467073 -0.83629990
C   1.56281157 -1.03952413 -1.97331789
C   3.24560887  0.14896532 -0.50798873
N   1.09314246  1.22366094 -1.35670729
O   1.79545706  1.67777900 -2.49522611
C   0.90496078  2.34399237 -0.40728323
C   2.19302327  3.02392986  0.11028403
C   0.07932976  3.40264394 -1.15678995
C   0.12691643  1.82920009  0.79191469
C   0.18940586  0.45368105  1.16009771
C   0.98532738 -0.47745607  0.41530035
C   0.98451236 -1.77075004  0.88996295
N   1.77450599 -2.85434073  0.28105088
O   2.98622666 -2.81355844  0.36857364
O   1.16118710 -3.77691967 -0.22559033
C   0.23546086 -2.23028223  1.99227641
C  -0.52154030 -1.34210070  2.68776783
C  -0.55705645  0.01627825  2.29470592
C  -1.33874197  0.93612465  3.03194298
C  -1.35998001  2.25418270  2.67438637
C  -0.62110451  2.69193960  1.55926749
H   1.90423475 -0.58154653 -2.89927144
H   0.51101291 -1.31470299 -2.09192228
H   2.15379812 -1.94386321 -1.83927211
H   3.67838692  0.90235096 -1.16677250
H   3.78494020 -0.78538347 -0.66461364
H   3.41326407  0.45414970  0.52579495
H   2.86474463  3.25965252 -0.71811226
H   2.73010811  2.40505863  0.82917504
H   1.93483258  3.96028304  0.61299000
H   0.63178907  3.75126999 -2.02820525
H  -0.12552976  4.27304427 -0.53256588
H  -0.87443187  2.98884860 -1.49554342
H   0.28482447 -3.27518819  2.27506864
H  -1.10109011 -1.66381670  3.54618237
H  -1.90399621  0.57555473  3.88531665
H  -1.94574042  2.97029395  3.24101616
H  -0.65802421  3.74487608  1.30987943
N  -3.07159504 -0.70644112 -1.22787927
C  -2.37190035 -1.73122702 -0.40242076
C  -4.53370530 -0.75692711 -0.94754834
C  -2.54538549  0.64732779 -0.88976667
C  -2.82655009 -0.98319205 -2.67148056
H  -4.90294879 -1.75287885 -1.18597461
H  -2.55089590 -1.51337134  0.64848588
H  -2.76788462 -2.71333299 -0.65574770
H  -1.30744784 -1.68789663 -0.62275851
H  -1.75346456 -0.94824475 -2.85470551
H  -3.21815855 -1.97074549 -2.90999403
H  -3.33324544 -0.22372398 -3.26436633
H  -2.69974064  0.82631901  0.17360632
H  -1.48340038  0.67688443 -1.12905656
H  -3.08711674  1.38587351 -1.47871773
H  -4.69318584 -0.53888437  0.10717364
H  -5.03390675 -0.01225373 -1.56446151

