29
Total Energy                               R     -6.329722398302330E+02
C   1.61296754 -0.70034208 -0.10959539
C   2.59601821 -1.11816844  0.97537038
C  -0.72403212  1.21529509  1.52168111
N   1.19470909  0.70598098  0.09178003
O   2.02686704  1.64047825  0.30343624
C  -0.76460928 -0.40849314 -0.47987664
C  -0.59458719  2.13016815 -0.81829753
C   2.24136387 -0.83532264 -1.49797865
C  -2.17407154 -0.73823229 -0.06764809
C   0.26945139 -1.42850691 -0.00401939
O  -2.48772287 -1.50772251  0.81478521
O  -3.07951931 -0.07209651 -0.79000870
C  -0.26629252  0.95035767  0.08519338
H   3.53416275 -0.56471841  0.89210811
H   2.81896957 -2.18286011  0.86954545
H   2.17542645 -0.95148666  1.97026443
H  -0.14754706  3.04714826 -0.42854387
H  -0.52721122  0.36000304  2.17246556
H  -0.19248576  2.08230125  1.92026799
H  -0.22531237  1.96145888 -1.83276255
H  -1.67600354  2.27312063 -0.86140300
H  -0.75274283 -0.33922778 -1.57044804
H   3.11365897 -0.18284000 -1.58732781
H   1.53026995 -0.57262102 -2.28565488
H   2.56601081 -1.86679995 -1.65566867
H  -3.96997021 -0.28603390 -0.47615278
H   0.25393390 -2.33780377 -0.60577705
H   0.07593533 -1.70348709  1.03506339
H  -1.79430755  1.43617346  1.54688643

