29
Total Energy                               R     -6.330815241335096E+02
C  -0.80293221 -0.39079896 -0.55676486
C  -2.18110151 -0.71897049 -0.06149407
C   0.25906018 -1.42745366 -0.18720880
N   1.18124571  0.75572215 -0.38572163
O  -2.45410461 -1.46011610  0.86135983
C   1.59561958 -0.65240660 -0.13717312
C   2.53292555 -1.08522469 -1.26650310
C  -0.80205505  2.16753166 -0.65444605
C  -0.22997085  0.92905869  0.02581772
C  -0.47745411  1.03559852  1.54020252
O  -3.13641393 -0.08171562 -0.75369464
O   2.05285055  1.71659377  0.16326046
C   2.31194500 -0.89385202  1.19862987
H  -4.00274898 -0.29282789 -0.37783328
H  -1.86731923  2.28378406 -0.43915766
H  -1.51645408  1.31557963  1.73970962
H   0.28237258 -2.25039638 -0.90529403
H  -0.28198389  0.10273942  2.07161963
H   0.03502701 -1.85786226  0.79101698
H   2.88009242 -2.11367362 -1.12013286
H   2.46053481 -1.96961157  1.33797964
H   3.41372424 -0.43577768 -1.30501105
H  -0.86683216 -0.26817117 -1.64041943
H   2.02623170 -1.03059356 -2.23482261
H  -0.67265682  2.11371087 -1.73908437
H   3.29607262 -0.41911903  1.21709267
H  -0.29189402  3.06494245 -0.29285585
H   0.16023706  1.81068310  1.97143362
H   1.74200123 -0.52245257  2.05204452

