42
Total Energy                               R     -1.127665469273823E+03
C  -0.83415620 -1.56356218 -0.02268178
C  -0.89826108 -2.11545268  1.41981081
C  -0.27907233 -2.64872789 -0.96309354
N  -2.16818448 -1.23013570 -0.60531106
O  -2.99399515 -2.37559387 -0.57605526
C  -3.46520639 -0.28161419  1.40021540
C  -2.90539824 -0.08540928 -0.02757012
C  -4.09487062  0.17258801 -0.96923398
C  -1.99101716  1.12595638 -0.01620032
C  -0.57447118  0.97886953 -0.04075515
C   0.05674636 -0.31203806 -0.03417675
C   1.43923763 -0.36462897  0.00497470
C   2.21303110 -1.65196374  0.06995747
O   2.80700049 -1.93661456 -1.09009370
O   2.32084310 -2.34636333  1.05465850
C   2.23004226  0.82677922 -0.02334509
C   3.71215878  0.77293053  0.07934533
O   4.33551340 -0.12013422  0.61562285
O   4.31371988  1.83499659 -0.46112859
C   1.62726851  2.05110291 -0.05626028
C   0.22278888  2.15849109 -0.03746925
C  -0.37411961  3.43954099  0.01105420
C  -1.73380271  3.55124448  0.07717702
C  -2.52980846  2.39178365  0.06488235
H  -1.06385572 -3.38371377 -1.12988931
H  -3.99421664 -1.23310287  1.48139233
H  -1.76873384 -2.76647835  1.52063706
H   0.57033777 -3.18580818 -0.54685062
H   3.32970573 -2.74640567 -0.99737170
H   0.00620302 -2.22538705 -1.92956769
H  -3.74751437  0.38961018 -1.98330780
H  -2.68762875 -0.24940929  2.16294378
H  -3.60408548  2.51671848  0.12197211
H  -4.73861410 -0.70536078 -1.00647860
H  -4.70871461  1.00836375 -0.63088200
H  -4.17617393  0.51801821  1.62607944
H  -0.00751559 -2.69929384  1.65245213
H   5.26832154  1.76874835 -0.31696788
H  -0.96926514 -1.32031919  2.16278623
H   2.22067668  2.95738009 -0.05726875
H   0.26500635  4.31647241  0.00996630
H  -2.20783262  4.52525356  0.13371596

