42
Total Energy                               R     -1.127358752310939E+03
C  -0.78683671 -1.54022281 -0.44654535
C  -2.79654661 -0.11075782  0.52011338
C  -2.44503421 -0.44771088  1.98251206
N  -2.27383054 -1.23141945 -0.32691793
O   2.51628292 -2.31617977 -0.84410643
C   2.15665109 -1.66420517  0.10752273
C  -0.59917415 -2.78103868  0.45225422
C  -0.56876719 -1.89189324 -1.92648284
C   1.41680503 -0.35258793  0.01212057
C   0.04212988 -0.30027025 -0.09738769
C  -0.60308075  0.97405794 -0.09661454
C  -2.01015420  1.09908934  0.04188946
C  -4.29768686 -0.02731123  0.33570424
O  -3.02588723 -1.91867570 -0.91449019
O   2.32289202 -2.03722909  1.37114645
C  -2.61218873  2.32523535 -0.08811575
C  -1.84255015  3.48817880 -0.29689958
O   4.30859522 -0.22508583  0.25998319
O   4.24718907  1.99362166  0.03375715
C  -0.47832488  3.41108474 -0.32316723
C   0.16646497  2.15532863 -0.20697144
C   1.57043980  2.06106370 -0.16387387
C   3.67039539  0.79525801  0.11067207
C   2.18740041  0.84934689 -0.00189035
H  -4.57131358  0.20708129 -0.69408854
H  -0.84828933 -1.05273413 -2.56612183
H  -3.68566528  2.42457549  0.00999015
H  -4.76782245 -0.96652969  0.62804562
H  -2.87901053  0.34785108  2.58971678
H  -2.89165166 -1.40005344  2.27260062
H  -1.41268802 -3.48493052  0.27581946
H  -0.55697264 -2.52408340  1.50847755
H   2.80164184 -2.87895100  1.40448002
H  -1.14418483 -2.77509205 -2.20094929
H   0.31890741 -3.28804215  0.16386247
H   0.48705473 -2.10790169 -2.07362092
H  -4.68156252  0.75235213  0.99257849
H  -2.34322183  4.44446568 -0.39270366
H   0.13058928  4.30301439 -0.42357409
H   2.15584152  2.96913610 -0.23241755
H   5.20552203  1.89253458  0.11745897
H  -1.37258910 -0.47023905  2.16950939

