42
Total Energy                               R     -1.127549415553468E+03
C  -2.93836579 -0.07198832 -0.11496892
C  -0.78407795 -1.58949874  0.10285844
C  -3.86064944  0.13901793 -1.32601087
N  -2.17815016 -1.31698768 -0.37579988
O  -2.90197947 -2.33971784 -0.60310557
C  -3.78460482 -0.24973974  1.15707661
C  -2.54941434  2.36008946  0.13340750
C  -0.87174817 -2.02895391  1.57624358
C  -1.99516864  1.10387033  0.02112821
C  -0.58097796  0.96043066  0.00810052
C   0.07072679 -0.31947113  0.00316099
C   0.20358805  2.14828224  0.02732825
C  -0.26951724 -2.73832022 -0.77200526
O   2.40002065 -2.29991535  1.06655534
O   4.37019835 -0.09906931  0.47928719
C   1.45261459 -0.35949926  0.00497337
C   2.24202361 -1.63962645  0.06600596
O   2.76837456 -1.95543279 -1.11502140
O   4.27545710  1.89150953 -0.52684275
C   3.71440984  0.80349191  0.00275761
C   2.22719762  0.84108769 -0.03663129
C   1.60801430  2.05696649 -0.02540498
C  -0.40392868  3.42138376  0.11179239
C  -1.76418631  3.52334671  0.18645369
H  -1.03029222 -3.51253593 -0.82930719
H  -1.59539370 -2.84133124  1.67533754
H   0.60789332 -3.20951868 -0.34054233
H  -4.52959123 -0.71299577 -1.44613588
H  -3.27753583  0.26467698 -2.24137582
H  -4.47338511  1.02863243 -1.18110482
H  -4.45199139  0.60614325  1.27374519
H  -3.62703549  2.46944097  0.16870226
H  -2.24534843  4.49138537  0.26924801
H  -4.39645476 -1.14990360  1.07511095
H  -3.16360854 -0.32131091  2.05066674
H  -1.17490943 -1.20186703  2.21992787
H  -0.03961350 -2.39741625 -1.78310995
H   3.29598416 -2.76354401 -1.03304911
H   5.23652614  1.83601373 -0.42835725
H   2.18989033  2.97045052 -0.02567272
H   0.22880002  4.30246209  0.12566698
H   0.10093456 -2.38407849  1.91627152

