59
Total Energy                               R     -1.341922683750952E+03
C   1.65794950 -1.71548989 -0.95139362
C   1.59507138 -1.60167421 -2.48439104
C   1.86480876 -3.20202284 -0.58183361
N   2.72323273 -0.78530984 -0.51649144
O   3.96546249 -1.18050804 -1.06053579
C   2.86578911 -0.51688194  0.93235843
C   3.43805018 -1.67591367  1.77982174
C   3.82574480  0.68241471  1.04051092
C   1.51113074 -0.12256998  1.50469399
C   0.30726961 -0.47503720  0.83161995
C   0.33507325 -1.25629482 -0.35716434
C  -0.85198903 -1.61857298 -0.93791652
C  -2.09695766 -1.17634458 -0.44338838
C  -3.30271648 -1.60112669 -1.20497202
O  -3.32318718 -2.55570345 -1.95332175
O  -4.36362121 -0.82180385 -1.00418178
C  -2.14752273 -0.38630013  0.68207284
C  -3.43939212  0.09148530  1.27659386
O  -4.13902999 -0.57783608  2.00204439
O  -3.69827173  1.35904708  0.96759187
C  -0.94645571 -0.04997786  1.36501249
C  -0.97384132  0.68988328  2.57408344
C   0.19140233  0.97084956  3.22946669
C   1.42787483  0.56298657  2.69407126
H   2.55189283 -1.89235545 -2.91612471
H   1.37609921 -0.57372331 -2.78730512
H   0.83416740 -2.25744565 -2.90972919
H   2.88570819 -3.51271933 -0.81474541
H   1.17972351 -3.82734853 -1.16110028
H   1.67186718 -3.39864140  0.47312611
H   4.31502790 -2.10811985  1.29326379
H   2.70864594 -2.46825781  1.94895930
H   3.74550757 -1.30121845  2.76013624
H   4.78552189  0.42988789  0.59002212
H   4.01349734  0.96099163  2.07857141
H   3.41654074  1.55166958  0.51759722
H  -0.86338984 -2.23909602 -1.82375233
H  -5.12576540 -1.16869912 -1.48957906
H  -4.52105403  1.64038957  1.39527385
H  -1.91795955  1.02071208  2.99282225
H   0.17085000  1.52085696  4.16401079
H   2.32746542  0.81285229  3.24342578
N   0.42414506  2.95358008 -1.42470706
C   0.23071828  4.27212790 -2.08967852
C  -0.71231444  2.05208601 -1.76720963
C   1.69909320  2.33529333 -1.89098611
C   0.48183580  3.14627456  0.05231466
H  -1.63263288  2.47873956 -1.37241874
H   0.19922664  4.11854830 -3.16688704
H  -0.70671467  4.70469550 -1.74409947
H   1.06351137  4.92232944 -1.82740588
H   1.30428831  3.82129863  0.28326471
H  -0.46201889  3.57232286  0.38828538
H   0.65144712  2.18065526  0.52052005
H   1.63922846  2.18923617 -2.96857995
H   2.51944055  3.01048501 -1.65174589
H   1.83858674  1.37744596 -1.38497290
H  -0.77144669  1.96230479 -2.85074455
H  -0.52345957  1.07758006 -1.32659328

