59
Total Energy                               R     -1.341797134938246E+03
C   0.83956017 -0.22422847  0.16038320
C   1.43303412 -1.16912938 -0.89338044
C   1.30039106 -0.63559111  1.56947517
N   1.36175659  1.13342561 -0.14213657
O   2.62802422  1.21810653 -0.25286430
C   0.64898541  2.40727934  0.14038086
C   0.97190440  2.84736460  1.57899505
C   1.18105771  3.44402594 -0.85601114
C  -0.85280280  2.22628474 -0.00907053
C  -1.45292802  0.93644855 -0.01222142
C  -0.67661809 -0.24926934  0.08947945
C  -1.30937996 -1.46155875  0.15681950
C  -2.71094134 -1.58090190  0.07217620
C  -3.26449148 -2.96181285  0.14327104
O  -2.64389162 -3.91128354  0.57221968
O  -4.50603328 -3.06209509 -0.32275168
C  -3.48648542 -0.45251804 -0.06366645
C  -4.98695425 -0.50444008 -0.11075925
O  -5.68793899 -0.55078155  0.87347239
O  -5.45689191 -0.42716333 -1.35147666
C  -2.87489945  0.83080925 -0.08864439
C  -3.65873340  2.01005994 -0.16099927
C  -3.05731003  3.23550121 -0.14476249
C  -1.65645402  3.33953912 -0.06302795
H   2.52053440 -1.12170963 -0.87628376
H   1.08449460 -0.90232687 -1.89385809
H   1.14142019 -2.19854066 -0.68735543
H   2.38098804 -0.51773323  1.66276116
H   1.05181172 -1.68433567  1.74375064
H   0.81139911 -0.03642105  2.33923502
H   2.05372481  2.89136738  1.72399381
H   0.54124275  2.16357915  2.31241019
H   0.55737160  3.84217046  1.75527334
H   2.25982963  3.55081003 -0.75164877
H   0.73532813  4.41931831 -0.66447286
H   0.95164215  3.15235098 -1.88356041
H  -0.73866791 -2.37463072  0.26701813
H  -4.82764850 -3.96867860 -0.21926933
H  -6.42561821 -0.43665772 -1.33704753
H  -4.73972512  1.94565217 -0.21852173
H  -3.65620377  4.13813750 -0.18907371
H  -1.22129960  4.33070473 -0.02899310
N   6.11568187 -1.01080151 -0.16875826
C   7.34747280 -0.35694910  0.35722334
C   6.44355642 -2.38934673 -0.63078659
C   5.09130083 -1.08054702  0.91176023
C   5.58210947 -0.21818169 -1.31320890
H   7.19879390 -2.32577685 -1.41229196
H   7.73131313 -0.95068442  1.18505338
H   8.08449521 -0.30584874 -0.44236223
H   7.09320490  0.64469085  0.69929229
H   5.36283182  0.79042405 -0.96853633
H   6.33700373 -0.19132432 -2.09752861
H   4.67651802 -0.69777188 -1.67990604
H   5.50819400 -1.63464730  1.75108536
H   4.83669720 -0.06771438  1.21773555
H   4.21267348 -1.59260811  0.52539291
H   6.82349026 -2.96052794  0.21448140
H   5.53770986 -2.85095959 -1.01984796

