45
Total Energy                               R     -7.140980600975804E+02
C  -1.76703165  1.30147775  0.34300062
C  -0.82062090  2.13307647 -0.53166241
C  -2.69014277  2.26278049  1.09520097
N  -2.61281882  0.32690598 -0.40897385
O  -2.92233769  0.73952968 -1.72353264
C  -1.98228200 -1.00605221 -0.32855579
C  -3.01588172 -2.08919795 -0.61372657
C  -0.77445204 -1.21964135 -1.25397424
C  -1.56037820 -0.99512376  1.15564511
N  -0.65258742 -2.03899790  1.62121785
C  -0.97742183  0.40491622  1.32341357
H  -1.37026372  2.84889739 -1.14781118
H  -0.21585259  1.51431446 -1.19591742
H  -0.13948451  2.70193960  0.10984942
H  -3.35704866  2.78108380  0.39816344
H  -2.11492603  3.02202114  1.63675661
H  -3.30767183  1.72344198  1.82016165
H  -3.33736074 -2.06379050 -1.65967694
H  -3.90037271 -1.96208699  0.01795788
H  -2.59991182 -3.08438823 -0.42245894
H  -1.04084004 -0.98400480 -2.28709306
H  -0.44905828 -2.26412646 -1.22884866
H   0.08367496 -0.60289304 -0.98030352
H  -2.47530881 -1.08084640  1.75013844
H   0.20103002 -2.00913890  1.07238056
H  -1.06846548 -2.94742721  1.43914270
H   0.08353125  0.38575423  1.05262074
H  -1.03904908  0.75792423  2.35654901
N   3.57732599  0.05982793 -0.10643685
C   4.43442129  0.64869610  0.96081208
C   2.62636148  1.09309951 -0.60629736
C   4.43522382 -0.41117710 -1.22965731
C   2.81114796 -1.09086088  0.45042682
H   2.00339077  1.42276874  0.22234652
H   4.99050688  1.48492810  0.54103342
H   3.79485763  0.99218275  1.77198241
H   5.12010356 -0.11637224  1.32055383
H   3.51618717 -1.83894447  0.80915184
H   2.19574785 -0.73103535  1.27299443
H   2.18722627 -1.50889004 -0.33758104
H   4.98655783  0.43822904 -1.62894339
H   5.12500140 -1.16313929 -0.85050963
H   3.79707734 -0.84062541 -1.99993041
H   3.19843984  1.93039676 -1.00326542
H   2.01388437  0.65147793 -1.38958512

