51
Total Energy                               R     -3.695986571892011E+03
C   0.19463490 -0.52058973 -1.18773208
C   0.54676539  0.55584535 -2.20444135
C   1.06106206 -1.76972581 -1.43062413
N   0.57046871 -0.00307954  0.19357163
O   1.41202859  0.81581606  0.27018329
C  -0.03529409 -0.53604776  1.48509966
C   0.75048653 -1.80795974  1.85183076
C   0.16278722  0.51843166  2.56320494
C  -1.53046565 -0.81097559  1.25918095
C  -1.80028640 -1.58962490 -0.01324776
Br  -3.73691275 -1.90184041 -0.18362682
C  -1.31257417 -0.82013861 -1.22486610
H   1.62369029  0.68742113 -2.30442613
H   0.08149319  1.50882229 -1.95241920
H   0.15558687  0.22335032 -3.16745679
H   2.11405296 -1.55999973 -1.23425635
H   0.95083543 -2.01171131 -2.48902536
H   0.74662088 -2.63512986 -0.85209534
H   1.82240295 -1.61209929  1.88390090
H   0.55302492 -2.64730225  1.18980087
H   0.42268440 -2.08405980  2.85553062
H   1.21553547  0.64516426  2.81633472
H  -0.36296522  0.16877947  3.45308811
H  -0.26024511  1.47779993  2.26474681
H  -2.06310641  0.14134779  1.22797502
H  -1.87342494 -1.35907018  2.13833566
H  -1.38075862 -2.59248936  0.02666052
H  -1.85353305  0.12510230 -1.29991782
H  -1.48659192 -1.38065960 -2.14490106
N   5.20906626  0.00119673 -0.09006118
C   4.47417276 -1.13278999  0.53666450
C   5.22794994  1.15581680  0.85292712
C   6.60525033 -0.41781543 -0.39912080
C   4.51895054  0.40298835 -1.34839476
H   4.20078272  1.44218656  1.07320830
H   4.97893867 -1.40891671  1.46102731
H   3.45880914 -0.80642637  0.74688912
H   4.46687047 -1.97338572 -0.15487320
H   4.48248521 -0.45401243 -2.01844769
H   3.51378280  0.73277479 -1.09785152
H   5.07716328  1.21689218 -1.80817774
H   7.09434236 -0.71633503  0.52650374
H   6.57180093 -1.25515078 -1.09399290
H   7.13090771  0.42285289 -0.84843437
H   5.73901126  0.85328861  1.76519327
H   5.75679664  1.98268332  0.38232545
B  -2.37052602  2.77153276 -0.05518902
F  -2.92216962  2.28385973 -1.25637171
F  -2.37012009  4.17909298 -0.07001062
F  -3.13054166  2.30758885  1.03663026
F  -1.04006049  2.30692472  0.07072023

