60
Total Energy                               R     -1.593913153233928E+03
C   0.51312492  1.93203282  1.34696603
C   1.39195942  1.26120880  2.41547558
C   0.13965554  3.34884774  1.84287752
N   1.28218515  1.87051348  0.08634405
O   2.49939914  2.56875188  0.22002566
C   0.59876919  2.28181692 -1.15915154
C   0.39682777  3.80345834 -1.33697395
C   1.49102070  1.78019928 -2.31122102
C  -0.75340083  1.58841005 -1.25623044
C  -1.36670691  0.99844435 -0.11469038
C  -0.77847479  1.14736921  1.17558518
C  -1.42593655  0.63335880  2.27596896
C  -2.62204353 -0.07954957  2.15067948
C  -3.17058585 -0.26934024  0.91203622
N  -4.37560871 -1.08479271  0.86705097
O  -5.16008080 -1.00676006  1.80252098
O  -4.54889226 -1.83660188 -0.07948222
C  -2.60020530  0.28767826 -0.26830388
C  -3.21932447  0.24186880 -1.53898441
C  -2.63707816  0.87362887 -2.60408290
C  -1.40612000  1.53386499 -2.46560912
H   2.33627645  1.79719678  2.50122786
H   1.60546423  0.22476268  2.14228323
H   0.92098588  1.27128244  3.39905706
H   1.00454259  4.01208964  1.77331342
H  -0.17433054  3.30789782  2.88947798
H  -0.68171889  3.78479765  1.27309124
H   1.33270128  4.33135276 -1.14361032
H  -0.37180004  4.20521549 -0.67685237
H   0.09283869  4.01995689 -2.36458846
H   2.49654950  2.18631164 -2.20279246
H   1.11103331  2.09460331 -3.28463228
H   1.55486983  0.68962823 -2.30327038
H  -1.01750047  0.75720843  3.26956262
H  -3.09300639 -0.50687277  3.02698218
H  -4.16070260 -0.27142840 -1.67335161
H  -3.12639273  0.85602435 -3.57219736
H  -0.97357503  2.00298799 -3.34112257
N   4.20764913 -1.35066233  0.30906253
C   4.82696184 -0.25784485  1.11053552
C   3.25582340 -0.76259565 -0.67808879
C   5.27141444 -2.10160009 -0.41474727
C   3.47696524 -2.27985492  1.21622521
H   2.50228383 -0.17254394 -0.15452842
H   5.34199933  0.42214738  0.43425892
H   4.04108726  0.27188801  1.64506366
H   5.53287705 -0.69750403  1.81344098
H   4.18495417 -2.69653793  1.93101035
H   2.70136195 -1.72356252  1.73731341
H   3.03383555 -3.07441660  0.61911481
H   5.80568351 -1.41084182 -1.06490519
H   5.95384191 -2.53543188  0.31433717
H   4.80351135 -2.88709721 -1.00566053
H   3.81845319 -0.12022067 -1.35356299
H   2.79124205 -1.57484389 -1.23434065
B  -0.19067519 -2.63382595 -0.72006159
F  -1.55243971 -3.00145672 -0.72936961
F   0.60680107 -3.78523337 -0.91436328
F   0.05685186 -1.71893797 -1.76237072
F   0.12958075 -2.05124529  0.52108968

