47
Total Energy                               R     -7.731666634969899E+02
C  -1.36286155  1.33082399  0.26295341
C  -1.16620419  2.35197014  1.38381351
C  -0.59231910  1.78265656 -0.98734730
N  -0.82053118  0.02565326  0.74027916
O   0.33021211  0.06087384  1.27680272
C  -1.28737664 -1.31190801  0.28898133
C  -0.47794629 -1.73912850 -0.94361084
C  -1.04238116 -2.31484243  1.41578491
C  -2.79021326 -1.26449575 -0.01704133
C  -3.21207467 -0.05005629 -0.82855058
O  -4.59969649 -0.08946691 -1.14194133
C  -2.85894029  1.20364351 -0.04515683
H  -0.10865042  2.54501679  1.56852701
H  -1.62473589  2.00285469  2.31303747
H  -1.64359427  3.29332449  1.09930517
H   0.48048466  1.85154508 -0.78839335
H  -0.94409600  2.77373398 -1.28684094
H  -0.73952736  1.10570061 -1.83084153
H   0.58670882 -1.77981318 -0.73639487
H  -0.63273034 -1.07055057 -1.79355524
H  -0.79309091 -2.74231273 -1.24489157
H   0.02277628 -2.44899809  1.60723647
H  -1.46501963 -3.28115191  1.12746338
H  -1.52656185 -1.99183810  2.34126697
H  -3.34651948 -1.25191070  0.92893194
H  -3.06208799 -2.18387166 -0.54262775
H  -2.71433018 -0.04692528 -1.80082439
H  -5.09889069 -0.09181740 -0.31762876
H  -3.42379764  1.19280662  0.89589245
H  -3.16920782  2.09415622 -0.59853821
N   3.67523692  0.00299540 -0.24304351
C   2.85675643  0.02787780 -1.49358742
C   3.31699350 -1.19992726  0.56788164
C   5.12056794 -0.04288959 -0.60041025
C   3.38597426  1.22839827  0.55871681
H   2.26200564 -1.13200903  0.83286410
H   3.05474294 -0.87952619 -2.06168169
H   1.81567589  0.07457094 -1.20110726
H   3.12893227  0.90809132 -2.07331003
H   3.65519539  2.10216487 -0.03250381
H   2.31997037  1.23925312  0.80131764
H   3.97839857  1.19383360  1.47193164
H   5.30826069 -0.94672181 -1.17822963
H   5.36270583  0.83878494 -1.19117990
H   5.70833903 -0.05467780  0.31581962
H   3.51229095 -2.09102189 -0.02708644
H   3.92943797 -1.20722155  1.46793838

