47
Total Energy                               R     -7.732635885057935E+02
C  -1.23012144  1.25697482 -0.41583202
C  -0.29228891  2.43061982 -0.11331626
C  -1.79402846  1.52248146 -1.82412472
N  -0.42019941 -0.00000036 -0.35276613
O   0.29364899  0.00000024  0.86401141
C  -1.23012228 -1.25697539 -0.41583042
C  -1.79402937 -1.52248482 -1.82412279
C  -0.29228955 -2.43061996 -0.11331448
C  -2.36689138 -1.24825788  0.62795634
C  -3.23529279  0.00000104  0.55108590
O  -4.23596468  0.00000210  1.57546594
C  -2.36689046  1.24825919  0.62795494
H   0.52900228  2.46459028 -0.83889159
H   0.13735589  2.33961268  0.88215596
H  -0.84122858  3.37592351 -0.18247795
H  -1.04206913  1.30106786 -2.58767109
H  -2.05722759  2.58093205 -1.91507394
H  -2.69372371  0.95897806 -2.06425110
H  -1.04207282 -1.30106567 -2.58767021
H  -2.69372927 -0.95898784 -2.06424693
H  -2.05722147 -2.58093716 -1.91507213
H   0.52900163 -2.46458917 -0.83888989
H  -0.84122829 -3.37592422 -0.18247663
H   0.13735523 -2.33961289  0.88215765
H  -1.91207074 -1.28368499  1.62514739
H  -2.99086675 -2.14256023  0.51402897
H  -3.81655412  0.00000095 -0.37474079
H  -3.78727980 -0.00000114  2.42792316
H  -1.91207004  1.28368731  1.62514607
H  -2.99086502  2.14256199  0.51402657
N   3.53621757 -0.00000003  0.17201390
C   3.13164650 -1.21222353  0.94289845
C   5.00377444 -0.00000105 -0.05792020
C   2.81010279 -0.00000422 -1.13202618
C   3.13164725  1.21222914  0.94288992
H   5.51124709  0.00000032  0.90601146
H   3.40562054 -2.09641491  0.36760683
H   3.66023190 -1.20946173  1.89598680
H   2.04787140 -1.14097361  1.08017210
H   2.04787260  1.14098047  1.08016542
H   3.66023405  1.20947555  1.89597745
H   3.40561919  2.09641497  0.36758885
H   3.10018914 -0.89180946 -1.68775362
H   1.73734616 -0.00000053 -0.92294298
H   3.10019375  0.89179415 -1.68776214
H   5.27208300 -0.89286072 -0.62125740
H   5.27208378  0.89285647 -0.62126043

