28
Total Energy                               R     -4.995622300291506E+02
C  -0.97781363 -0.97843406 -0.43736555
C  -1.71579082  1.43997160 -0.98444171
C   0.33042749 -1.51730157  0.16090418
N  -2.19546283 -1.66655988 -0.05708744
O   0.88054098  1.92122764 -0.00594518
C   1.35263948 -0.39363272  0.01195729
C   2.34004961 -0.25285453  1.16094911
C   2.05987219 -0.40028437 -1.35095809
C  -1.00146968  0.50869140 -0.02485788
N   0.46016982  0.82373987 -0.00669322
C  -1.45971949  0.72482824  1.42876403
H   0.66614103 -2.41665638 -0.35479371
H  -0.91152925 -1.00976298 -1.52718966
H  -2.21857367 -2.56470607 -0.52655625
H   0.18576556 -1.75932843  1.21714947
H  -2.18542968 -1.86258838  0.93921823
H  -0.93986704  0.07493521  2.13454438
H   2.94002123 -1.16399672  1.19131849
H   1.81841657 -0.14648447  2.11396763
H   3.00604147  0.59785006  1.00914674
H   2.71052910 -1.27581765 -1.36694283
H   2.66688479  0.49787882 -1.47419727
H   1.35066858 -0.47689332 -2.17731891
H  -1.30099872  1.76552135  1.71463903
H  -1.29394584  1.36596513 -1.98878994
H  -1.67038307  2.47524016 -0.64405620
H  -2.76275235  1.13544574 -1.02302666
H  -2.52743653  0.50741288  1.46720540

