55
Total Energy                               R     -1.169142425622784E+03
C   0.34719004 -0.29086397  1.64716706
C   1.22002449 -1.53766484  1.43874534
C   0.17495160 -0.00468673  3.14912233
N   1.07282348  0.84520710  1.02726963
O   2.26745651  1.01560148  1.43359951
C   0.43848763  2.01418330  0.36718491
C   0.20300536  3.10516082  1.42597398
C   1.42325399  2.51200551 -0.69861648
C  -0.88603647  1.62675795 -0.26885711
C  -1.55896391  0.41636025  0.06011326
C  -1.01155410 -0.49879121  1.00272148
C  -1.73308157 -1.60840550  1.37727524
C  -2.98031754 -1.89007564  0.81192555
C  -3.48600902 -1.05368417 -0.14256930
N  -4.74963468 -1.46363810 -0.74744456
O  -5.59217146 -1.97058086 -0.02437701
O  -4.90183658 -1.31465987 -1.94883338
C  -2.82848273  0.14098786 -0.54424157
C  -3.39600769  1.08524264 -1.43206706
C  -2.73183813  2.24711102 -1.70940949
C  -1.48002163  2.51484219 -1.13224031
H   2.20330952 -1.38500201  1.88155449
H   1.33640933 -1.75527552  0.37454173
H   0.76820975 -2.40294053  1.92288953
H   1.14663584  0.20889651  3.59817535
H  -0.24866058 -0.87896333  3.64659716
H  -0.48999949  0.84404541  3.31845332
H   1.14067437  3.34414865  1.93249422
H  -0.53085229  2.78525354  2.16814215
H  -0.17048857  4.00969705  0.94179688
H   2.39288056  2.72104137 -0.24917314
H   1.06179865  3.43668666 -1.14709949
H   1.54965764  1.76884821 -1.48909437
H  -1.34344487 -2.29928390  2.11377134
H  -3.52061937 -2.78229407  1.10241083
H  -4.36175066  0.90340102 -1.88190135
H  -3.17612084  2.97632022 -2.37770244
H  -0.99695230  3.45496144 -1.36796756
N   4.75666515 -1.04991593 -1.02894896
C   5.13762255 -0.74094553  0.37888995
C   3.65416693 -0.14243621 -1.45668454
C   5.93638779 -0.85074046 -1.91750445
C   4.29447157 -2.46400316 -1.12021923
H   2.79225642 -0.31963748 -0.81867125
H   5.45704130  0.29807804  0.43477829
H   4.27380417 -0.90274898  1.01953966
H   5.95173462 -1.40184565  0.67157660
H   5.10954087 -3.11862966 -0.81644439
H   3.43952737 -2.59516647 -0.45913862
H   4.00897807 -2.67115388 -2.15025514
H   6.25637083  0.18718529 -1.84461559
H   6.73539982 -1.51462762 -1.59183825
H   5.64663422 -1.08408313 -2.94055900
H   3.99257755  0.88705651 -1.35778544
H   3.40538740 -0.36054977 -2.49397855

