37
Total Energy                               R     -1.096740597661802E+03
C  -1.60756263  1.58351515  0.27515223
C  -0.74062898  2.63428389 -0.40243317
C  -2.98126608  2.18017508  0.63597636
N  -1.89153100  0.49779517 -0.75914587
O  -1.87397807  0.79982606 -1.89707145
C  -2.27421585 -0.92945519 -0.40768913
C  -3.76792971 -0.90673724 -0.02885440
C  -2.10353614 -1.79450706 -1.65012083
C  -1.40359138 -1.39006378  0.78038679
C   0.03392618 -1.67554247  0.39129305
O   0.69396316 -2.57177683  0.87184805
O   0.50976578 -0.79923772 -0.48095790
C  -1.40966723 -0.37768815  1.93735978
C  -0.89747563  0.98634418  1.49929095
H  -1.28143034  3.17786098 -1.17711209
H   0.15973139  2.18795032 -0.82896577
H  -0.43988442  3.34487911  0.36932452
H  -3.56444168  2.40535402 -0.25862714
H  -2.77687536  3.11554054  1.15956221
H  -3.55757154  1.53854307  1.29907363
H  -4.34837244 -0.41072317 -0.80793636
H  -3.97109656 -0.43632934  0.92855005
H  -4.08427943 -1.94935255  0.02688758
H  -2.85752560 -1.55865676 -2.40082819
H  -2.24543733 -2.83104607 -1.33906663
H  -1.11571087 -1.69575410 -2.09808081
H  -1.83345706 -2.33230636  1.12251768
H   1.46868798 -0.92312509 -0.63950195
H  -0.78053658 -0.75678063  2.74500116
H  -2.42100320 -0.30600207  2.33978067
H   0.17219081  0.94114087  1.28934215
H  -1.02886043  1.70939353  2.30701257
B   3.81549047  0.25817875 -0.10800141
F   4.18729708 -0.26398648  1.13932803
F   4.94622347  0.69209429 -0.81340107
F   3.17329461 -0.77701278 -0.86620228
F   2.90905317  1.31685111  0.06076147

