32
Total Energy                               R     -6.522480400740565E+02
C   0.19109307 -0.86747151 -0.04877435
C   2.54789066 -1.34582564  0.01894374
C   1.22695506 -1.79005917 -0.01597807
N   4.17093577  0.46322465  0.11653228
O  -3.09645230  0.54223999 -0.11662445
C   0.48216983  0.49289467 -0.05063201
C   2.84387073  0.02375009  0.01951462
C   1.79116249  0.94936786 -0.01783731
C  -0.79807012  1.29282011 -0.05472726
C  -1.30283994 -1.08148134 -0.04925538
C  -1.75082162 -2.12608043 -1.07366504
C  -1.79132683 -1.52417591  1.34071172
N  -1.78343577  0.26049209 -0.48394589
C  -1.05690996  1.89841043  1.33578702
C  -0.78506511  2.42653423 -1.08215583
H   3.36315440 -2.06430471  0.04504803
H   1.02313340 -2.85791414 -0.01788086
H  -1.43367019 -0.86640689  2.13543578
H   4.85013816 -0.19354847 -0.24269957
H  -1.37963742 -1.87489959 -2.07190568
H  -1.38927233 -3.12716118 -0.81369935
H   2.01322957  2.01424587 -0.01968590
H  -0.98157869  1.15628318  2.13311981
H  -0.32926307  2.68925754  1.54672224
H   4.32913369  1.38330694 -0.27095225
H  -0.06204075  3.20556764 -0.81706100
H  -0.53287894  2.04674115 -2.07683393
H  -1.43598982 -2.53661870  1.56140335
H  -2.84391321 -2.16445642 -1.11440763
H  -2.88315660 -1.52121901  1.36609107
H  -2.06150394  2.32579329  1.36487425
H  -1.77541552  2.88929601 -1.13426849

