64
Total Energy                               R     -1.766252461975440E+03
C   0.12070774  1.02524485  1.65088359
C   1.51608277  0.50329039  1.94103436
C  -0.52390999  1.56552062  2.94688864
N   0.29698827  2.21316382  0.72168037
O   1.37769794  2.63541596  0.53629307
C  -0.85957892  2.93394941  0.08850060
C  -1.11789628  4.16081128  0.99238195
C  -0.39312800  3.40390483 -1.29553192
C  -2.05063593  2.00314608 -0.02662371
C  -1.97596046  0.61589994  0.27635448
C  -0.85576467  0.06386872  0.97471818
C  -0.77798492 -1.29739644  1.14030992
C   0.29096092 -2.06671370  1.86109850
O   1.19186111 -2.65023813  1.30769772
O   0.06527306 -2.12788651  3.17136084
C  -1.79905767 -2.14088458  0.64882503
C  -2.92967937 -1.63047640  0.07990787
C  -4.02876548 -2.58329612 -0.24580009
O  -5.20756534 -2.37289356 -0.05623888
O  -3.57297665 -3.73489423 -0.74021477
C  -3.05905262 -0.22366063 -0.11650810
C  -4.20050245  0.35196002 -0.72278566
C  -4.27651563  1.70293435 -0.91615357
C  -3.19328755  2.52802784 -0.57812113
H   2.14691212  1.31110027  2.30913002
H   1.97337058  0.06611407  1.05587211
H   1.46952727 -0.22876171  2.74164621
H   0.06320468  2.38949576  3.35500213
H  -0.50961613  0.73642555  3.65527254
H  -1.55853328  1.87309255  2.80627443
H  -0.19757834  4.73454258  1.10894019
H  -1.51149973  3.88855755  1.96906962
H  -1.85055111  4.78627741  0.48291522
H   0.45968268  4.07642100 -1.21184086
H  -1.21369606  3.95110919 -1.75661094
H  -0.13568355  2.55478119 -1.92720371
H   0.74127710 -2.67655746  3.59732152
H  -1.70083266 -3.21072616  0.79041698
H  -4.31119394 -4.34788455 -0.86831017
H  -5.01877920 -0.28113548 -1.03568558
H  -5.15953097  2.14094568 -1.36699273
H  -3.25788373  3.58641958 -0.80183091
N   5.15623092 -0.54517646 -0.25409560
C   5.89480960  0.26125218 -1.26716728
C   4.89550650  0.29401361  0.95003578
C   3.86018704 -1.00021452 -0.83420335
C   5.97262119 -1.72970540  0.13240451
H   5.84965327  0.62870914  1.35380817
H   5.28419229  1.11982574 -1.54111380
H   6.83655136  0.59186026 -0.83226103
H   6.08174986 -0.36072360 -2.14067470
H   6.15316598 -2.33367223 -0.75511805
H   6.91617506 -1.38370293  0.55083794
H   5.42228785 -2.30630998  0.87387444
H   3.27237204 -0.12452151 -1.09720841
H   4.06459928 -1.59831449 -1.72055254
H   3.33496598 -1.59726630 -0.09128186
H   4.29074858  1.14969495  0.65478844
H   4.36626740 -0.30683855  1.68734315
B   0.62055210 -0.41889383 -2.31763510
F   0.98979910  0.52096185 -1.32334638
F   0.81264039 -1.72154703 -1.82466011
F  -0.73051033 -0.23107033 -2.66121840
F   1.43186243 -0.21893184 -3.45351079

