47
Total Energy                               R     -1.552010701949454E+03
C  -1.04635661 -1.46943648  0.98114601
C  -0.68348728 -0.83435849  2.33265040
C  -1.09958831 -3.00763755  1.09683038
N  -2.49675552 -1.08017306  0.73409144
O  -3.23559245 -1.09813051  1.64897923
C  -3.00235616 -0.69576209 -0.62450076
C  -2.85038585 -1.92910293 -1.53565421
C  -4.45807718 -0.29683500 -0.50074841
C  -2.05274380  0.41177274 -1.05200727
C  -0.65869216  0.18951881 -0.90838934
C  -0.14871537 -0.88018405 -0.11237033
C   1.18999778 -1.20022986 -0.20693333
C   1.77757018 -2.37794061  0.52949168
O   2.21457333 -2.32949511  1.65516166
O   1.71489232 -3.48785078 -0.19724338
C   2.07392219 -0.38153306 -0.97255488
C   3.52087501 -0.71378642 -1.05844390
O   4.01188559 -1.74367405 -0.64645432
O   4.24607346  0.23879164 -1.64307062
C   1.60470579  0.74363250 -1.59636759
C   0.23078042  1.04740051 -1.59351317
C  -0.26865249  2.18244974 -2.27702710
C  -1.61150582  2.43416178 -2.30187741
C  -2.51172867  1.52724479 -1.70554419
H  -1.29418218 -1.25694103  3.12966625
H  -0.81258222  0.24774361  2.29584557
H   0.36053123 -1.05481256  2.54362952
H  -1.95813872 -3.29607333  1.70426533
H  -0.21391451 -3.35039422  1.62758481
H  -1.15545452 -3.49677590  0.12697919
H  -3.42320367 -2.76907899 -1.13946344
H  -1.81361512 -2.22764956 -1.68460748
H  -3.26303139 -1.64390097 -2.50441329
H  -5.04440442 -1.12612765 -0.10416176
H  -4.83835917 -0.06836977 -1.49573439
H  -4.59087234  0.57598612  0.14011676
H   2.10146609 -4.22641057  0.29674164
H   5.17164164 -0.04001482 -1.67485850
H   2.28234567  1.40046336 -2.12673837
H   0.43347159  2.84071307 -2.77700493
H  -2.00023774  3.30715885 -2.81298723
H  -3.57413397  1.70812531 -1.80864492
B   0.71824545  2.94618141  1.54916017
F   1.23491975  3.65636690  0.44567305
F  -0.63897075  2.63826202  1.32090467
F   1.45410947  1.75869969  1.73143605
F   0.82446456  3.74370339  2.71034671

