59
Total Energy                               R     -1.341792694626046E+03
C   0.00696734 -0.60785832  0.99157088
C   0.39283149 -0.89731843  2.45402950
C  -0.63234430 -1.85335659  0.35592240
N  -1.04983153  0.44231284  1.04529353
O  -2.06213073  0.18997810  1.77212473
C  -1.11868178  1.54786096  0.06083565
C  -1.38027811  0.98388048 -1.34926993
C  -2.25444719  2.48461474  0.44721912
C   0.24750214  2.20433855  0.08518280
C   1.38757360  1.35157187  0.09682101
C   1.26479689 -0.06260715  0.29373849
C   2.35848675 -0.86047845  0.01486869
C   2.27800569 -2.36458395  0.06419340
O   2.50146764 -3.03826547  1.04342245
O   1.90194260 -2.87075378 -1.10766501
C   3.62634296 -0.27997404 -0.29764006
C   4.80419815 -1.14100983 -0.58329987
O   4.75251422 -2.34062671 -0.75912101
O   5.95361024 -0.46588431 -0.63898820
C   3.77379045  1.08098224 -0.31545892
C   2.65992322  1.92525750 -0.14566478
C   2.79792264  3.33133867 -0.25792482
C   1.69593036  4.13396975 -0.17961763
C   0.41410180  3.56077621 -0.03712676
H  -0.47535298 -1.25967131  3.00515261
H   0.76849560  0.00705572  2.93825565
H   1.16801996 -1.66061037  2.49540502
H  -1.61211669 -2.00205414  0.81094537
H  -0.05727285 -2.75282990  0.56557752
H  -0.75472624 -1.74958458 -0.72218380
H  -2.30863868  0.41157018 -1.36576369
H  -0.56863971  0.34199199 -1.69625064
H  -1.47265985  1.81627727 -2.05051519
H  -3.19921190  1.94254736  0.47122620
H  -2.34606352  3.27342746 -0.30012384
H  -2.09075641  2.94331306  1.42444229
H   1.85408072 -3.83634670 -1.04723532
H   6.67134186 -1.08208045 -0.84123835
H   4.74200559  1.52742194 -0.50413202
H   3.78608564  3.74825538 -0.42183261
H   1.79114303  5.21080291 -0.26394013
H  -0.44711150  4.21733819 -0.05228265
N  -5.49877803 -0.77357288 -0.52345480
C  -4.20629836 -1.45649742 -0.23113824
C  -5.28151927  0.29061716 -1.54430836
C  -6.48274062 -1.76564580 -1.04095318
C  -6.02064762 -0.15751037  0.72954129
H  -4.57445881  1.01701520 -1.14878570
H  -3.80587201 -1.86536779 -1.15724391
H  -3.52050273 -0.72794554  0.19464019
H  -4.38907092 -2.25596784  0.48499510
H  -6.17112043 -0.94315103  1.46810736
H  -5.29039693  0.56415572  1.09267820
H  -6.96443523  0.33835743  0.50940102
H  -6.08210558 -2.21516152 -1.94774488
H  -6.64153151 -2.52964015 -0.28198264
H  -7.41728874 -1.25084830 -1.25755816
H  -4.88403734 -0.16755678 -2.44817607
H  -6.23502864  0.77237663 -1.75431906

