62
Total Energy                               R     -1.156861837333648E+03
C   0.30464688 -0.75963115  0.64454165
C  -0.28443201 -1.84979956 -0.26386782
C  -0.45385953 -1.45118212 -1.72376407
C   0.32997544 -1.20655520  2.12304436
C   1.11997330 -2.47193202  2.43309259
N  -0.51493566  0.48183690  0.56629186
O  -1.68884162  0.52861523  1.04302432
C   0.19200501  1.69897256  0.09828457
C  -0.33436800  2.16579082 -1.28145409
C  -1.83447023  2.41044379 -1.38976123
C   0.09817713  2.82794599  1.13557652
C   0.58773867  2.47099346  2.53219745
C   1.58253196  1.14484565 -0.07251115
C   1.63104164 -0.22494176  0.16496240
C   2.79971152 -0.93076765 -0.06190592
C   3.93840275 -0.24133179 -0.48392131
C   5.17776646 -1.02119674 -0.71295398
O   5.26870127 -2.22341526 -0.55513183
O   6.21397511 -0.28029166 -1.11751915
C   3.89431545  1.14174810 -0.68544802
C   2.70983310  1.83823909 -0.48961202
H  -1.24638209 -2.15552017  0.16148287
H   0.37232961 -2.72152700 -0.20201869
H  -1.11288178 -0.58791598 -1.83947815
H  -0.89080384 -2.27762344 -2.29034367
H   0.50563003 -1.20183197 -2.18597682
H  -0.71081244 -1.34486854  2.43057059
H   0.72855036 -0.38016577  2.71733805
H   0.73929892 -3.34416934  1.89685441
H   1.04528119 -2.68879739  3.50211045
H   2.18202094 -2.36431617  2.20017639
H  -0.03705910  1.42659033 -2.03008251
H   0.21285676  3.08323421 -1.52163154
H  -2.39949258  1.48389684 -1.28072486
H  -2.06427080  2.82200104 -2.37655060
H  -2.20120668  3.11994682 -0.64397114
H  -0.93836006  3.17080652  1.18568206
H   0.68213619  3.66304884  0.73637021
H  -0.05118412  1.72007690  3.00293466
H   0.57588902  3.35830647  3.17045765
H   1.61153330  2.08573351  2.51906795
H   2.84013836 -2.00510013  0.07090425
H   6.98252415 -0.85315811 -1.24671029
H   4.78089521  1.67342995 -1.00786987
H   2.66862520  2.90715340 -0.66971412
N  -5.06692764 -0.68464546 -0.39783560
C  -5.14315565  0.79648826 -0.24369626
C  -6.23426625 -1.16627213 -1.18813871
C  -3.80133771 -1.04148126 -1.10008425
C  -5.07737751 -1.32457587  0.94820574
H  -7.14836723 -0.90421641 -0.65792182
H  -5.12248343  1.25184939 -1.23220988
H  -6.07244963  1.04563736  0.26599072
H  -4.29025801  1.13230818  0.34301719
H  -4.21677609 -0.96680549  1.51125330
H  -6.00066393 -1.05348417  1.45740067
H  -5.02049207 -2.40430855  0.82159875
H  -3.80076917 -0.57005570 -2.08122468
H  -2.97230757 -0.67592258 -0.49969811
H  -3.74960974 -2.12423900 -1.20257815
H  -6.21645086 -0.68757820 -2.16563581
H  -6.15937757 -2.24682510 -1.29776868

