39
Total Energy                               R     -9.391021478417945E+02
C  -0.08738926  0.77953923 -0.08348537
C  -0.39969841 -2.77841125 -1.08947434
C   0.58619860  3.14705573 -0.09231319
N  -2.07591183 -1.12659050 -0.55709021
O  -3.08063047 -2.11615426 -0.46491081
C  -2.55238043  0.13745973  0.06006234
C  -1.74089536  2.52972282 -0.02980901
C  -3.78225323  0.57925505 -0.74805272
C  -1.45246979  1.18464013 -0.04824046
C  -0.78662586 -1.68577982 -0.07689424
C   0.27854653 -0.59729790 -0.07741391
C   2.29055080  1.38199646 -0.07204199
C   1.60930728 -0.93341381 -0.02861050
C   4.05836129 -0.31495132  0.03216558
O   4.27053526 -1.62976464  0.15196019
O   4.97634520  0.48184768 -0.01575622
C   2.62393719  0.05209304 -0.02524120
C   0.93540022  1.77329848 -0.09171617
C  -0.82169121 -2.33171765  1.32667588
C  -0.72917816  3.51355941 -0.06048301
C  -2.96995239  0.04029307  1.54549363
H  -4.56406402 -0.17665749 -0.68038691
H  -1.17305861 -3.54630461 -1.11828706
H  -0.29346494 -2.35661351 -2.09284844
H  -3.52770485  0.71993445 -1.80250513
H   0.53783307 -3.26844536 -0.82158810
H   3.06113343  2.14531231 -0.07663075
H  -2.76957341  2.86528476  0.01960878
H   1.37694791  3.89062924 -0.10628208
H  -1.00796121  4.56203284 -0.05117015
H  -4.20106047  1.51213717 -0.36811048
H  -3.54722980  0.92572113  1.82658774
H  -3.59710391 -0.83873696  1.71106456
H   1.90395800 -1.97354075  0.00866165
H   5.22232225 -1.79625906  0.19713012
H   0.08344814 -2.92532283  1.48202059
H  -0.86791649 -1.59444821  2.12796193
H  -1.68196455 -2.99818272  1.41417758
H  -2.11176459 -0.01188551  2.21615440

