60
Total Energy                               R     -1.444771595523217E+03
C   0.15413958  1.97960951  0.91876453
C   1.44209935  2.41673675  1.65173159
C  -1.07104914  2.71571855  1.52971869
N   0.41632268  2.34601013 -0.50622983
O   0.36522625  3.75160028 -0.64354158
C  -0.44027994  1.67610794 -1.51457163
C  -1.96121838  1.87387540 -1.32906127
C  -0.06000194  2.22192237 -2.89274901
C  -0.13852412  0.18992273 -1.40735245
C   0.00349546 -0.37193501 -0.10188300
C   0.00693062  0.45937083  1.05903403
C  -0.08821735 -0.15472247  2.30524034
N  -0.32639057  0.51606153  3.50531255
C  -0.00949628 -1.57077204  2.40911214
C   0.11018619 -2.36163694  1.30894406
C   0.08991040 -1.78743131  0.01673119
C   0.13133991 -2.60132549 -1.14046120
C   0.05748267 -2.03523840 -2.38183472
C  -0.09738800 -0.63721207 -2.50495151
H   1.56299792  3.49880078  1.57503604
H   2.31386911  1.94258337  1.19582644
H   1.44671302  2.16577071  2.71331296
H  -1.33803879  3.55909847  0.89339352
H  -0.84746469  3.12946164  2.51775578
H  -1.94198025  2.06611927  1.63234547
H  -2.20678084  2.93788114 -1.26931202
H  -2.33129729  1.38267540 -0.42884471
H  -2.49998858  1.45042738 -2.18157159
H  -0.28033981  3.28681563 -2.95012136
H  -0.63419432  1.73220680 -3.68139721
H   1.00463338  2.07740046 -3.10044663
H   0.04869042  0.05376176  4.32103820
H  -0.14794111  1.50498485  3.52804274
H  -0.04149705 -2.01472801  3.40050680
H   0.19436485 -3.43941671  1.41147603
H   0.21554964 -3.67758884 -1.01953659
H   0.08954274 -2.65102533 -3.27488201
H  -0.20827782 -0.22736780 -3.50125269
N   4.22888800 -0.86159468 -0.13461497
C   3.40905650 -0.97627677  1.10559867
C   5.44812614 -1.70710133 -0.00092880
C   3.42826932 -1.32191814 -1.30499004
C   4.62662364  0.55959926 -0.33974981
H   6.02343834 -1.35698997  0.85451811
H   3.13451385 -2.02002565  1.24447746
H   4.00355276 -0.62747481  1.94855883
H   2.51761769 -0.36342976  0.99333435
H   3.72783058  1.15865647 -0.47043307
H   5.18236860  0.89790681  0.53315662
H   5.24974913  0.62283779 -1.23024530
H   3.14144051 -2.35914573 -1.14547942
H   2.54365607 -0.69383506 -1.39084878
H   4.04096986 -1.23371931 -2.20081682
H   5.14124240 -2.74062461  0.15012939
H   6.03788308 -1.61975211 -0.91173233
B  -4.10716878 -1.06835636  0.01473920
F  -3.33047286 -0.76196697  1.14961245
F  -4.86218109  0.06398490 -0.35913232
F  -3.26849689 -1.44912878 -1.05125731
F  -4.98434227 -2.13293189  0.32181312

