60
Total Energy                               R     -1.444657823436448E+03
C  -1.02600519 -1.63308023 -1.23886205
C   0.08133220 -1.15643525 -2.19305050
C  -1.85873476 -2.75639768 -1.90765462
N  -0.32423586 -2.23313509 -0.06813872
O   0.55053347 -3.11958296 -0.32947414
C  -0.89591724 -2.17385882  1.30051509
C  -2.21387328 -2.97328041  1.33278489
C   0.08541907 -2.80409380  2.28047289
C  -1.18289061 -0.71214412  1.58769416
C  -1.75357194  0.07370431  0.54176327
C  -1.84465881 -0.41397938 -0.79862275
C  -2.57569637  0.32252078 -1.72563400
N  -2.73904817 -0.04114374 -3.06094709
C  -3.12996225  1.57950545 -1.35442564
C  -2.95581343  2.09589301 -0.10947326
C  -2.26900841  1.35413700  0.88065339
C  -2.10525001  1.86598011  2.18956674
C  -1.47228951  1.12566337  3.14904452
C  -1.03194875 -0.17952969  2.84467221
H   0.65458068 -2.00435393 -2.57007335
H   0.75534068 -0.46971851 -1.67802615
H  -0.35715454 -0.63737802 -3.04451152
H  -1.41901793 -3.72679605 -1.67370350
H  -1.83755959 -2.67137343 -2.99631823
H  -2.89721426 -2.75880768 -1.57392699
H  -2.03996747 -4.00106873  1.00349798
H  -2.98314493 -2.52678318  0.70123774
H  -2.59097097 -2.99468875  2.35771638
H   0.30204525 -3.83248104  1.99449627
H  -0.36109341 -2.82943967  3.27476460
H   1.02239509 -2.24881284  2.33704697
H  -3.50206693  0.43912281 -3.51670154
H  -2.77498728 -1.02834225 -3.25533480
H  -3.67488052  2.14167987 -2.10723312
H  -3.35327597  3.07435302  0.14151020
H  -2.49143066  2.85609858  2.41268402
H  -1.33391807  1.51780668  4.15090102
H  -0.59520330 -0.77127299  3.63991485
N   3.87625783 -0.55618844 -0.19957545
C   3.78521344 -1.67353650 -1.18162742
C   2.82958304 -0.73188554  0.84659521
C   5.22215879 -0.56742069  0.43976080
C   3.67245198  0.74419263 -0.89891603
H   1.85088711 -0.70064921  0.37307182
H   3.92524132 -2.61524353 -0.65373242
H   2.80461696 -1.64902746 -1.65087511
H   4.56412056 -1.54344944 -1.93098088
H   4.43895863  0.85016180 -1.66519868
H   2.68369899  0.74657783 -1.35196900
H   3.75542285  1.54686696 -0.16993347
H   5.35833339 -1.51778419  0.95294361
H   5.97770346 -0.44676579 -0.33473906
H   5.27794511  0.25527281  1.15067564
H   2.98919259 -1.69475368  1.32767730
H   2.92116243  0.07272409  1.57312388
B   0.89222709  3.06093094 -0.17458044
F   0.38677554  2.34281144 -1.27650879
F   2.09631281  3.70005960 -0.54701858
F  -0.04656197  4.03541286  0.22657990
F   1.14245063  2.17925815  0.89470062

