34
Total Energy                               R     -7.114079183691645E+02
C   0.89068209  1.33012866 -0.05204799
C   1.05403066  1.96163049  1.34157211
C   2.38282918 -1.89046648 -1.07182440
N   2.02904451  0.47363979 -0.49030255
O   3.28037882  0.96780781 -0.13357278
C  -1.60943727  0.57508182 -0.02560928
C  -4.40337788  0.88908174  0.00469897
C   0.68668417  2.45200807 -1.07153074
C  -0.23975938  0.33005448 -0.04989397
C   1.77710392 -0.92781939 -0.04830624
C   2.33812335 -1.27829635  1.34038115
C   0.26840266 -0.96047057 -0.04245861
O  -3.83632857 -0.40829798  0.03327059
C  -0.60205708 -2.04426102 -0.00645499
C  -1.97395931 -1.82140170  0.02061068
C  -2.48023090 -0.51653952  0.00974706
H   1.98709960  2.52845993  1.37205975
H   3.41316126 -1.08574194  1.35926148
H   1.08632505  1.21409020  2.13661131
H   1.57849862  3.08496896 -1.10893387
H   1.96397834 -1.71336545 -2.06699925
H   3.46601568 -1.74361413 -1.12566218
H  -1.98023587  1.59366192 -0.03531647
H   0.21964375  2.63859064  1.55333307
H  -4.10441388  1.47660641  0.87889860
H  -0.16587294  3.08764906 -0.80905081
H  -4.12693580  1.42642693 -0.90838480
H   0.51627130  2.04159821 -2.07139846
H   2.16416865 -2.33645779  1.56358258
H   2.19784336 -2.93586924 -0.80138385
H  -0.22546853 -3.06365194 -0.00042022
H   1.87544313 -0.69090091  2.13590772
H  -2.67241804 -2.65195729  0.04670580
H  -5.48302226  0.74556785  0.02242248

