34
Total Energy                               R     -7.113230035881254E+02
C   2.46836742 -0.52552439  0.00001207
C   1.95298879 -1.82947797  0.00000700
C   0.58429510 -2.04592519  0.00000108
N  -2.05478386  0.49700966 -0.00000779
O   3.82014962 -0.42743868  0.00002082
C   1.60548240  0.57010897  0.00001045
C   4.39858585  0.86740965 -0.00003011
C  -0.84334186  2.23646545 -1.26018064
C   0.23512428  0.33031433  0.00000389
C  -0.27954002 -0.95501021 -0.00000066
C  -1.78687716 -0.96194990 -0.00000580
C  -2.37630762 -1.59708587  1.25991796
O  -3.22908534  0.96644110 -0.00000873
C  -2.37630126 -1.59708690 -1.25993155
C  -0.84335314  2.23644889  1.26020036
C  -0.85656474  1.37074414  0.00000365
H   5.47654941  0.71335796 -0.00004887
H   0.19861139 -3.06098082 -0.00000337
H  -1.96541860 -1.13375512  2.16059761
H   2.64656666 -2.66386254  0.00000714
H  -1.96540944 -1.13375525 -2.16060953
H  -2.14283525 -2.66485597 -1.28191890
H   4.11437456  1.43050205  0.89448722
H  -0.86016392  1.61770685  2.16106513
H   1.97779550  1.58756482  0.00001424
H   4.11433471  1.43044873 -0.89456834
H   0.05928116  2.85272294 -1.27877937
H  -0.86014427  1.61773576 -2.16105415
H  -2.14284280 -2.66485524  1.28190552
H  -3.46330362 -1.48371832  1.27074782
H  -3.46329737 -1.48372068 -1.27076585
H  -1.71187747  2.89953530  1.27271357
H  -1.71186648  2.89955156 -1.27269289
H   0.05927049  2.85270500  1.27881443

