52
Total Energy                               R     -1.197630225010981E+03
C   1.58776404 -0.47500638 -1.07717369
C   0.29531994 -1.20831513 -1.40644674
C   1.72589406  0.76962748 -1.97298955
N   1.46839090  0.04389521  0.35069285
O   0.39145686  0.24663382  0.77971849
C   2.66311852  0.37793710  1.23302048
C   3.06646605  1.81917312  0.87397312
C   2.19536864  0.31509592  2.67951901
C   3.78378071 -0.63139589  0.96754711
C   4.05869720 -0.89271033 -0.50601334
O   5.12587369 -1.81777488 -0.66258225
C   2.79413010 -1.41336739 -1.17251752
H  -0.55353989 -0.52834082 -1.45618338
H   0.08965470 -1.99718248 -0.68081087
H   0.42855182 -1.66803258 -2.38715911
H   0.93385705  1.48920328 -1.76383257
H   1.61400310  0.41719153 -2.99981899
H   2.69375119  1.25792319 -1.88537644
H   2.20158540  2.48385977  0.89611337
H   3.56161149  1.89673295 -0.09113021
H   3.76975627  2.13919765  1.64454186
H   1.48637211  1.10894054  2.91411230
H   3.07749860  0.44645005  3.30800386
H   1.74735869 -0.65316013  2.91139382
H   3.52848604 -1.58097954  1.45048152
H   4.67779054 -0.24042882  1.45802333
H   4.40629030  0.01640167 -0.99883324
H   4.88063048 -2.65383335 -0.25133270
H   2.53107602 -2.37410006 -0.71635145
H   2.96900448 -1.58903347 -2.23603693
N  -3.57974413 -1.84369718  0.28559002
C  -3.17359476 -2.28988549 -1.07730391
C  -4.15319287 -2.99504979  1.03672420
C  -2.38704791 -1.31678744  1.00707321
C  -4.60138507 -0.76416815  0.16971420
H  -5.02403350 -3.36583429  0.49850526
H  -2.41978628 -3.06926715 -0.98021458
H  -4.05131260 -2.67727696 -1.59210037
H  -2.76635904 -1.43744423 -1.61724665
H  -4.16901743  0.06692324 -0.38362743
H  -5.46783641 -1.15907202 -0.35795433
H  -4.88448619 -0.44292343  1.17053735
H  -1.64794445 -2.11195629  1.08643635
H  -1.98963410 -0.48013122  0.44106685
H  -2.69495265 -0.98807340  1.99819851
H  -3.39701833 -3.77485808  1.11132744
H  -4.44163469 -2.65565551  2.03015459
B  -1.89201919  2.47607931 -0.30267207
F  -2.00455286  1.42628766 -1.23949204
F  -2.31752598  2.02569242  0.96360336
F  -0.54774137  2.89606525 -0.22403102
F  -2.69914762  3.55653465 -0.71445323

