38
Total Energy                               R     -9.547189425667113E+02
C  -0.77391980  1.32437800 -0.03902755
C  -1.72447731 -2.15830366 -1.62660361
C  -0.36972623  2.61683778 -0.24116816
N  -2.55626431 -0.27798934 -0.30984533
O  -3.56758666 -0.36464348 -0.90793464
C  -1.66448841 -1.49692154 -0.24187421
C  -3.23900959  2.05607390 -0.01540862
C  -2.30968639 -2.41489682  0.81781071
C  -2.20677332  1.01689956  0.37788530
C  -0.23526107 -1.08648962  0.06966443
C   0.17926127  0.26964352 -0.01868738
C   1.00187155  2.92044376 -0.35564639
C   1.95068061  1.94308244 -0.24463396
C   2.47008481 -0.49104167  0.09528210
N   3.91887049 -0.27081632  0.02284487
O   4.35147416  0.39764902 -0.89803234
O   4.61228420 -0.79436427  0.87400314
C   1.56486399  0.58900889 -0.07666641
C   2.06148675 -1.77484796  0.31461278
C   0.69194020 -2.07768580  0.26733659
C  -2.26592700  0.74449840  1.89709977
H  -2.73717235 -2.48285512 -1.86393060
H  -1.08077314 -3.03697398 -1.60371005
H  -1.36107591 -1.47683329 -2.39867017
H  -3.22186395  2.26855165 -1.08578292
H  -1.08492401  3.42906953 -0.26557911
H  -3.02694300  2.97464493  0.53004821
H  -4.23943904  1.73218583  0.27306822
H  -2.10283733  1.70829220  2.38186023
H  -3.24859426  0.36567243  2.18504487
H  -3.35943056 -2.58517953  0.57293718
H  -2.22522330 -2.01313591  1.82556445
H  -1.79583022 -3.37522425  0.77773803
H   1.30383976  3.95231331 -0.49412844
H   2.99788011  2.21101844 -0.28353175
H   2.78539888 -2.56695236  0.46021816
H   0.39368121 -3.11646840  0.33734549
H  -1.48983000  0.06030891  2.23636976

