38
Total Energy                               R     -9.550040366066880E+02
C   0.20751950 -1.09450814 -0.03983869
C   3.03262914  2.00198107 -0.80632426
C   1.90321323 -2.58730051 -1.10776089
N   2.48698726 -0.32340908 -0.57925458
O   3.84826150 -0.64125790 -0.50159852
C   1.68092861 -1.46089982 -0.08181710
C   2.09846205 -1.98956032  1.31043983
C   2.23627241  0.99762379  0.04155955
C   0.75100137  1.31893189 -0.01515861
C  -0.21362131  0.26775561 -0.04443370
C  -0.73955740 -2.09194800  0.04556071
C  -2.10727499 -1.80104884  0.07531532
C  -2.52188356 -0.49923260  0.00105290
C  -2.00525180  1.95033843  0.02115483
N  -3.96591081 -0.28537224 -0.05004585
O  -4.67387754 -0.99865605  0.64226833
O  -4.40526485  0.56998682 -0.80120045
C  -1.60906594  0.59148027 -0.03386809
C  -1.05724766  2.93529687  0.06184568
C   0.31352271  2.62105776  0.03995923
C   2.70961323  1.12308979  1.50825145
H   2.65788983  2.02375840 -1.83479407
H   2.99347809  3.01506428 -0.40046026
H   1.02716986  3.43492676  0.08394234
H   1.52448245 -2.29235835 -2.09144228
H  -0.44076292 -3.13198720  0.08051120
H   1.42080346 -3.52246653 -0.81528543
H   2.97663600 -2.75925036 -1.18921286
H   1.72566490 -3.00635680  1.46517308
H   3.18983361 -1.99951108  1.34950091
H   4.07162815  1.67447666 -0.82700274
H   3.68315672  0.63543623  1.59966476
H   2.81208408  2.17499822  1.79204843
H  -2.83377453 -2.60332653  0.12198829
H  -3.05330851  2.21506476  0.04335374
H  -1.36448768  3.97480278  0.11662071
H   2.01434644  0.66262296  2.21231714
H   1.71911453 -1.37335133  2.12679622

