38
Total Energy                               R     -9.549101901498075E+02
C   1.66190776 -1.52284942 -0.03652012
C   1.90751025 -2.54017222 -1.16064526
C   2.05159145 -2.13037945  1.32306246
N   2.54655359 -0.36584119 -0.31663828
O   3.77320367 -0.64501708 -0.50147763
C   2.24992885  1.04402515  0.03834797
C   2.80336714  1.32962418  1.44564109
C   2.97226218  1.91406125 -0.99926814
C   0.75388123  1.31117526  0.01229533
C  -0.20293330  0.25696653 -0.01950779
C   0.20094095 -1.10855983 -0.01450097
C  -0.74954366 -2.10058128  0.05019075
C  -2.11700008 -1.80201770  0.06240469
C  -2.51578042 -0.49805331 -0.00308660
N  -3.96001800 -0.26433408 -0.06917187
O  -4.67700904 -0.93164541  0.65549588
O  -4.37851551  0.55845316 -0.86499250
C  -1.59725269  0.58577093 -0.01663913
C  -1.99448922  1.94258922  0.04986418
C  -1.04956725  2.92826669  0.10889015
C   0.31927831  2.61258673  0.08547246
H   2.96385664 -2.80402528 -1.19575075
H   1.61529157 -2.12487068 -2.12852821
H   1.33683327 -3.45232364 -0.98562273
H   3.11985355 -2.35650434  1.33073047
H   1.50054801 -3.05842713  1.48937593
H   1.82757609 -1.44753378  2.14482061
H   3.86035006  1.05775910  1.49111474
H   2.25943810  0.76970864  2.20914739
H   2.70887979  2.39424803  1.67098237
H   4.03794446  1.68829440 -0.99644651
H   2.85227289  2.97189520 -0.76591808
H   2.57615362  1.73052437 -2.00134830
H  -0.45848889 -3.14256453  0.08665721
H  -2.84783686 -2.60094325  0.09266234
H  -3.04318477  2.20547264  0.06996839
H  -1.35521595  3.96675989  0.17696187
H   1.03393726  3.42471565  0.14365206

