50
Total Energy                               R     -1.084573780344164E+03
C   1.75420806 -0.99265674  1.22108642
C   0.96994820 -2.23172500  1.68816318
C   2.95614670 -0.86223839  2.16094299
C   0.85288201  0.24090812  1.42943070
N   2.14805651 -1.26163563 -0.20112029
O   0.95188652 -1.32767243 -0.97077282
C   3.12999623 -0.36340497 -0.89514478
C   4.56650086 -0.61003791 -0.40169654
C   3.13869331 -0.75671502 -2.38220458
C   2.81954717  1.13959238 -0.81112351
H   0.73745153 -2.15072778  2.75462466
H   1.55899891 -3.14309973  1.54163327
H   0.02761616 -2.34643507  1.15257354
H   2.59744180 -0.88916408  3.19454613
H   3.48517422  0.08343809  2.03678620
H   3.66724127 -1.68378954  2.03536749
H   0.29373857  0.14476698  2.36595096
H   0.13198178  0.33719222  0.61967166
H   1.42321213  1.16833123  1.48942827
H   4.79432792 -1.68019952 -0.38187878
H   4.77247649 -0.20012230  0.58410525
H   5.27002928 -0.13480049 -1.09225106
H   3.26815785 -1.83662493 -2.50528428
H   3.97587076 -0.26088540 -2.88317011
H   2.22390286 -0.46221424 -2.89543749
H   3.03003798  1.54681312  0.18014621
H   1.77169585  1.33925422 -1.05062987
H   3.43639099  1.69283057 -1.52759487
N  -3.33247607 -1.76004304 -0.27630533
C  -2.49720591 -2.98887625 -0.16037973
C  -3.73531163 -1.56712569 -1.69805171
C  -4.54838249 -1.90516412  0.57225098
C  -2.54678273 -0.57593212  0.17605874
H  -2.83710136 -1.46744021 -2.30479338
H  -3.07555047 -3.83804109 -0.52104953
H  -1.59896403 -2.85948586 -0.76207014
H  -2.23304284 -3.13256567  0.88552141
H  -2.24500424 -0.72941405  1.21060507
H  -1.67053450 -0.48018924 -0.46091575
H  -3.17606384  0.30762750  0.09259176
H  -5.10794814 -2.77632003  0.23552652
H  -4.23780864 -2.03465650  1.60758485
H  -5.15492486 -1.00684499  0.47200634
H  -4.31216610 -2.43289289 -2.01907481
H  -4.33942098 -0.66452654 -1.77129162
B  -1.14387363  3.17269485  0.08384946
F  -1.91450134  4.30817159 -0.25182054
F   0.16319873  3.57904166  0.42364467
F  -1.73637520  2.51778985  1.18372705
F  -1.09492687  2.29945207 -1.02114076

