50
Total Energy                               R     -1.084472460408936E+03
C   1.86867046 -1.19323385  1.17148637
C   0.78827250 -2.26400558  1.35523255
C   3.22625227 -1.87049302  1.35569736
C   1.66820879 -0.09323823  2.22194119
N   1.68413306 -0.59578811 -0.19658076
O   0.46527034 -0.41182428 -0.53694500
C   2.74261255  0.05073270 -1.05495940
C   3.66940911 -1.01947600 -1.64757719
C   2.04506381  0.76846602 -2.21162864
C   3.54960500  1.09082011 -0.26833733
H   0.95364765 -2.76505643  2.31209290
H   0.84101045 -3.01687462  0.56442076
H  -0.21398980 -1.83879696  1.36469263
H   3.25080672 -2.29235441  2.36328999
H   4.07278632 -1.19034237  1.27534606
H   3.36214278 -2.69246846  0.65021422
H   1.70353797 -0.53865111  3.21992969
H   0.69276332  0.38297557  2.10037731
H   2.44151060  0.67458698  2.16797346
H   3.09032611 -1.82002626 -2.11508750
H   4.34000131 -1.45811351 -0.91119426
H   4.28961988 -0.55767779 -2.42029689
H   1.46959015  0.08013669 -2.83293645
H   2.81639243  1.22440477 -2.83679950
H   1.38106477  1.56080041 -1.86347774
H   4.11687344  0.66125084  0.55621084
H   2.90635385  1.87940309  0.12737851
H   4.26767252  1.55493331 -0.94966416
N  -1.25988846  2.79779833  0.29040766
C   0.19839606  2.91081578  0.57626620
C  -1.45554957  2.50116311 -1.15786632
C  -1.83632897  1.69024887  1.10601399
C  -1.93868459  4.07789591  0.63453671
H  -1.02284647  3.31303471 -1.74032557
H   0.66550071  1.96289130  0.32552630
H   0.61435632  3.71202599 -0.03234176
H   0.33349735  3.13056285  1.63397635
H  -1.78815794  4.27938986  1.69392422
H  -1.50455281  4.87647133  0.03532066
H  -3.00112782  3.98020995  0.41784551
H  -1.32683533  0.76610116  0.84417270
H  -1.68693957  1.92013505  2.15979172
H  -2.89912228  1.61279013  0.88522348
H  -0.95725900  1.56281238 -1.39128929
H  -2.52298850  2.42388710 -1.35694545
B  -3.03484828 -1.83787938 -0.36781738
F  -2.82548032 -1.47250025  0.97823371
F  -2.06462077 -2.78292389 -0.75890006
F  -4.32161391 -2.40474385 -0.50117752
F  -2.93926647 -0.69724277 -1.19085870

