60
Total Energy                               R     -1.444480671672609E+03
C   1.07282218 -2.23429246 -0.86215663
C   2.32146628 -2.04259436 -1.69936591
C   0.64496606 -3.71267957 -0.86589119
N   1.39492536 -1.85955991  0.56182912
O   2.49955656 -1.57287205  0.85802895
C   0.33514043 -1.83132928  1.64125635
C   0.52535665 -3.14307336  2.42725252
C   0.65966968 -0.62511304  2.53136146
C  -1.04459250 -1.66561025  1.02754317
C  -1.18779077 -1.24901502 -0.32148886
C  -0.09199442 -1.32591787 -1.22024697
C  -0.19702316 -0.73685960 -2.45573509
C  -1.39150243 -0.12945304 -2.86570258
C  -2.52215085 -0.15383080 -2.07026607
N  -3.72432465  0.33113893 -2.54698761
C  -2.43808898 -0.73882674 -0.76147598
C  -3.54743974 -0.81227598  0.11406961
C  -3.40948611 -1.33087904  1.37538632
C  -2.14492695 -1.72858728  1.84667332
H   3.13070253 -2.67004724 -1.32417153
H   2.64828162 -1.00288335 -1.71336050
H   2.10184115 -2.36073359 -2.71825373
H   1.43223796 -4.34645115 -0.45316095
H   0.48917984 -3.98144811 -1.91197425
H  -0.28716119 -3.88890072 -0.33126052
H   1.56026670 -3.22804600  2.76184682
H   0.25201566 -4.02053212  1.84364705
H  -0.11435045 -3.09523635  3.30833865
H   1.63181788 -0.74066449  3.00940421
H  -0.10431793 -0.56538949  3.30574928
H   0.64393844  0.29713865  1.95048803
H   0.63309398 -0.75695595 -3.15135881
H  -1.44253826  0.33020643 -3.84748002
H  -3.64199221  0.90717686 -3.37257792
H  -4.34953831  0.74267562 -1.86982589
H  -4.52393536 -0.46663751 -0.20469255
H  -4.26736641 -1.39450754  2.03494644
H  -2.04527904 -2.03710136  2.88147182
N  -1.40923145  2.95028847  0.77997634
C  -0.29311135  2.33905986  0.00285550
C  -2.64656106  2.97360804 -0.04896317
C  -1.65636370  2.14425998  2.00858695
C  -1.03850463  4.34239586  1.16000282
H  -2.43924825  3.50249726 -0.97752277
H  -0.57190474  1.32383709 -0.26932564
H  -0.12399603  2.93660379 -0.89058254
H   0.59861772  2.32975095  0.62456835
H  -0.12701786  4.31112915  1.75445359
H  -0.87449227  4.91963687  0.25150346
H  -1.85129958  4.77609442  1.74000292
H  -1.88860989  1.12229783  1.71347899
H  -0.76099578  2.16384702  2.62654589
H  -2.49564688  2.57966179  2.54849399
H  -2.94338636  1.94820381 -0.25295452
H  -3.43091399  3.48254722  0.50863648
B   3.35694014  1.69378600 -0.33660414
F   4.43703442  0.80441167 -0.51168632
F   2.32790982  1.36820379 -1.24363270
F   2.87480731  1.59056233  0.98535194
F   3.78824307  3.01563198 -0.57471996

