58
Total Energy                               R     -1.389314218734698E+03
C   0.95076249 -0.96494232  0.23527579
C   0.17250679 -1.97695554  1.07334346
C   0.36486303 -0.91790267 -1.18953299
N   0.79175521  0.36904334  0.87596811
O  -0.31816900  0.62273225  1.44263164
C   1.62568679  1.55199236  0.53920647
C   0.86737445  2.42071294 -0.47733247
C   1.81615939  2.33585689  1.84779486
C   2.98914920  1.12766064  0.01349390
C   3.36921660 -0.24072615 -0.06938160
C   2.43153157 -1.29487119  0.13872161
C   2.86545131 -2.59699167  0.10514946
C   4.21688171 -2.91675746 -0.15326933
C   5.12204940 -1.92680411 -0.41176587
C   4.71995713 -0.56667088 -0.38729077
C   5.63813098  0.46902532 -0.68489276
C   5.23107264  1.77539006 -0.66761859
C   3.90905983  2.10043549 -0.30510082
H  -0.86909575 -1.67467064  1.15429321
H   0.59184440 -2.06593028  2.07876268
H   0.19482658 -2.95669338  0.59603206
H  -0.67167840 -0.57650914 -1.16310943
H   0.38555989 -1.92090729 -1.62218740
H   0.94018475 -0.25688965 -1.84065998
H  -0.11922850  2.66715108 -0.08248639
H   0.74843604  1.91328926 -1.43591541
H   1.40635680  3.35444477 -0.64982629
H   0.84774704  2.62463564  2.25775875
H   2.39620690  3.24104766  1.66225903
H   2.34577260  1.72954436  2.58747982
H   2.16740553 -3.41224054  0.25081936
H   4.52173093 -3.95809482 -0.16746181
H   6.15622484 -2.16335776 -0.64344292
H   6.66286545  0.20782281 -0.93149020
H   5.92752376  2.57198488 -0.90821462
H   3.63236302  3.14805454 -0.25326815
N  -3.66999204  2.22698570 -0.31593734
C  -2.67805325  1.23142434 -0.81732025
C  -4.43458579  1.63522563  0.81992027
C  -2.95461847  3.44903718  0.14910760
C  -4.61184175  2.58707577 -1.41315722
H  -4.94073162  0.73891340  0.46826053
H  -2.00511201  0.97061055 -0.00122505
H  -3.21666239  0.35185914 -1.16371471
H  -2.12177999  1.68023030 -1.63872885
H  -4.04123424  3.01217130 -2.23733765
H  -5.12845178  1.68572446 -1.73873157
H  -5.32748617  3.31529438 -1.03471617
H  -2.26799046  3.16945022  0.94624554
H  -2.40583605  3.87259265 -0.69028743
H  -3.68844112  4.16376003  0.51827155
H  -3.73673763  1.38412864  1.61638012
H  -5.15915777  2.36860312  1.17028938
B  -3.90480372 -2.34142395 -0.06353198
F  -2.83961052 -2.50208916 -0.97310446
F  -4.39932309 -3.60929672  0.30989028
F  -3.45361007 -1.65890947  1.08358168
F  -4.93778084 -1.59862121 -0.67811875

