46
Total Energy                               R     -3.271536625829750E+03
C   0.46798051  1.36641329 -0.44252971
C   0.14564336  2.42333912 -1.49873313
C  -0.16518949  1.77489425  0.89378845
N  -0.11600742  0.07085410 -0.89709330
O  -1.32219911  0.10892862 -1.30294535
C   0.41211990 -1.27268218 -0.52076687
C  -0.23605832 -1.73183768  0.79168522
C   0.04447010 -2.25244474 -1.63481817
C   1.94508791 -1.22517071 -0.40279625
C   2.41787844 -0.02078915  0.38269273
Br   4.39049163 -0.06793599  0.55401854
C   1.99732107  1.24887923 -0.32564008
H  -0.92586788  2.61950815 -1.55066986
H   0.49221495  2.10771819 -2.48625473
H   0.65411361  3.35522078 -1.23802815
H  -1.25175186  1.82410232  0.79545823
H   0.19446423  2.76834949  1.17477748
H   0.07936652  1.08663390  1.70485271
H  -1.32285400 -1.75036445  0.69037916
H   0.02140997 -1.09040572  1.63604627
H   0.09892876 -2.74627682  1.02380189
H  -1.03476829 -2.39655274 -1.69692076
H   0.50940590 -3.21969661 -1.42674884
H   0.40674018 -1.89817084 -2.60336318
H   2.38043405 -1.18433300 -1.40645379
H   2.27230374 -2.15749091  0.06214011
H   2.07782215 -0.04606647  1.41630788
H   2.43464759  1.25352547 -1.32923117
H   2.36040747  2.13599557  0.19758001
N  -4.50994650 -0.03577601  0.43909770
C  -3.62324414 -0.01135317  1.63738357
C  -4.18243020 -1.22570703 -0.39977042
C  -5.93196535 -0.11136749  0.87812376
C  -4.29769190  1.20731876 -0.35850731
H  -3.14573296 -1.14671841 -0.72418644
H  -3.77504498 -0.92822550  2.20476931
H  -2.59041563  0.05890263  1.30564724
H  -3.88139795  0.85537633  2.24399712
H  -4.53467091  2.06622097  0.26746911
H  -3.25712492  1.24075027 -0.67858307
H  -4.95810022  1.18070974 -1.22410218
H  -6.07112234 -1.02298888  1.45705334
H  -6.15511462  0.76104622  1.49002190
H  -6.57052974 -0.12502976 -0.00338915
H  -4.33148776 -2.12351897  0.19787712
H  -4.84774303 -1.23439179 -1.26203505

