27
Total Energy                               R     -4.824647236707079E+02
C   1.27805046  1.36920601 -0.54536728
C   2.39787949 -0.86027678 -0.67471292
C  -2.27625064 -0.35733925 -1.12642232
N  -0.01437536 -0.69523569 -0.25986200
O  -0.05559739 -1.96659212 -0.36430803
C  -1.30832961 -0.01390213  0.01309743
C  -1.88148546 -0.51506639  1.34651569
C   1.54481523 -0.04602751  1.53234574
C   1.30232542 -0.05725156  0.01709600
C   0.01841325  2.10617859 -0.21154459
C  -1.12071867  1.47934258  0.05321892
H   2.18467832 -0.99070610 -1.73843636
H   3.33866536 -0.31208326 -0.58078623
H   1.40838629  1.33635698 -1.63396533
H  -2.47047765 -1.43084206 -1.16434670
H  -1.87543362 -0.03458249 -2.09042062
H  -3.22662783  0.15512943 -0.96007323
H  -2.03689952 -1.59548944  1.31514142
H  -2.84730052 -0.03648398  1.52617286
H  -1.22186091 -0.27811794  2.18318994
H   2.53248552 -1.84301175 -0.22107751
H   1.42362692 -1.05016256  1.94647863
H   2.56722088  0.28554751  1.73123721
H   0.86243684  0.63009087  2.05085314
H   2.14692179  1.90386022 -0.15122264
H   0.05311320  3.19194018 -0.19591816
H  -2.02172524  2.03875985  0.29131173

