60
Total Energy                               R     -1.593616850074915E+03
C  -2.12427176  1.22563233  0.92778817
C  -1.93141155  2.72783350  0.87698930
C  -3.26455748  0.86733543  1.90760042
N  -2.57546290  0.75383426 -0.43238472
O  -2.87526642  1.54626679 -1.24683938
C  -2.71492808 -0.71574961 -0.78251747
C  -4.22622910 -1.00839819 -0.71449828
C  -2.20526047 -0.86658889 -2.22117659
C  -1.87977410 -1.56614702  0.15786648
C  -0.90828728 -0.98708018  1.00806417
C  -0.88588286  0.41242566  1.26538863
C   0.15263030  0.97210058  1.94958535
C   1.15985859  0.12852447  2.45893093
N   2.29314881  0.74538198  3.14421600
O   2.38960938  1.96045803  3.11239279
O   3.09908805  0.02322947  3.70631164
C   1.10941794 -1.23153485  2.36040868
C   0.05469847 -1.82293952  1.63063841
C  -0.04269584 -3.22690813  1.49210360
C  -1.04990051 -3.76947799  0.74194488
C  -1.95139259 -2.93527260  0.05235793
H  -2.86248414  3.22023841  0.59667781
H  -1.14711432  3.01744082  0.17933716
H  -1.66717109  3.07323084  1.87579338
H  -4.20202187  1.32402497  1.58670547
H  -2.97599283  1.28914689  2.87134283
H  -3.39828630 -0.20601278  2.03272526
H  -4.76939606 -0.30680538 -1.34898193
H  -4.61035373 -0.96286715  0.30300981
H  -4.38258120 -2.01382032 -1.10484862
H  -2.80451861 -0.27497556 -2.91264160
H  -2.29599099 -1.91724840 -2.49523712
H  -1.15827020 -0.57210062 -2.29396534
H   0.20503335  2.03332115  2.14274525
H   1.87230315 -1.85668520  2.80676262
H   0.69467289 -3.85577032  1.97905511
H  -1.13785893 -4.84435909  0.63536215
H  -2.68481487 -3.39562660 -0.59997082
N   2.39946627 -1.58566375 -1.92809033
C   2.49909325 -0.64937288 -0.77146569
C   1.38028958 -2.63005251 -1.62901531
C   1.99432083 -0.83258909 -3.14852298
C   3.72140237 -2.23198516 -2.15856990
H   1.69097790 -3.17313088 -0.73920086
H   1.51878309 -0.21456438 -0.58952512
H   2.83533972 -1.21133183  0.09766644
H   3.21894825  0.12935342 -1.01512920
H   4.45819033 -1.45735733 -2.36410790
H   3.99907625 -2.78705445 -1.26401309
H   3.63758494 -2.90695266 -3.00860254
H   1.04346932 -0.34182200 -2.95564822
H   2.75817206 -0.09098335 -3.37133369
H   1.89891149 -1.53536364 -3.97477340
H   0.42266398 -2.14111394 -1.46115989
H   1.31353126 -3.30706793 -2.47916252
B   0.96717181  2.59766293 -1.59931976
F   0.27175336  3.81873166 -1.72204749
F   1.68442314  2.58456415 -0.38805973
F   0.03432309  1.53365813 -1.61257731
F   1.85873446  2.45248038 -2.67918148

