60
Total Energy                               R     -1.593611870747172E+03
C  -0.29983372  0.62047032  1.97112974
C   0.46908816 -0.48983352  2.66552856
C  -0.89623642  1.59304106  3.01443698
N   0.68932388  1.43378574  1.16345513
O   1.83680733  1.30316835  1.38039357
C   0.27778550  2.48675167  0.15627619
C   0.35549118  3.82860709  0.91766124
C   1.33109686  2.46747515 -0.95787523
C  -1.10633546  2.17966147 -0.38908555
C  -1.81641849  1.00645168 -0.03280018
C  -1.39179741  0.15448479  1.02589822
C  -2.04755785 -1.01492797  1.28011625
C  -3.17343094 -1.35087726  0.50451938
N  -3.85199249 -2.61521120  0.78157379
O  -3.36280112 -3.36095428  1.61361012
O  -4.87427527 -2.87487421  0.16973771
C  -3.66306474 -0.54053802 -0.47633740
C  -2.99137107  0.66912078 -0.75862130
C  -3.47981853  1.54251870 -1.75769342
C  -2.82095966  2.71068486 -2.02381540
C  -1.62474542  3.01791495 -1.34851841
H   1.26872459 -0.07802821  3.28002105
H   0.88507897 -1.19729377  1.94804873
H  -0.21123537 -1.01660510  3.33273160
H  -0.10413613  2.07698945  3.58825071
H  -1.49842224  0.98030741  3.68638475
H  -1.54535301  2.34292231  2.56532826
H   1.34097666  3.94112707  1.37205383
H  -0.41784601  3.92706596  1.67594694
H   0.22338237  4.62071096  0.18033250
H   2.32049554  2.69439635 -0.56306280
H   1.06873142  3.24155953 -1.67744762
H   1.34280008  1.50561304 -1.46728433
H  -1.74235574 -1.68033700  2.07389372
H  -4.54715137 -0.80792143 -1.04084822
H  -4.38002976  1.27068888 -2.29811861
H  -3.19509699  3.39528537 -2.77609792
H  -1.09887653  3.92617257 -1.62184694
N   4.71508234 -0.96868805  0.02774135
C   4.24677028 -0.92431277  1.44200722
C   4.07441439  0.13711415 -0.74099696
C   6.19614575 -0.81123278 -0.01180239
C   4.33379898 -2.27757337 -0.57570830
H   2.99749391 -0.00256178 -0.70665346
H   4.51512794  0.03965357  1.87026315
H   3.16746293 -1.05669925  1.45464023
H   4.72907799 -1.72887979  1.99444177
H   4.81685034 -3.07411059 -0.01208163
H   3.25207207 -2.38174149 -0.52568066
H   4.66536913 -2.29484466 -1.61229064
H   6.45711690  0.14723786  0.43375332
H   6.65022240 -1.62401507  0.55234625
H   6.52340344 -0.84518201 -1.04937980
H   4.35374445  1.08502474 -0.28464525
H   4.42770145  0.09626999 -1.77010818
B   0.44036256 -1.29411811 -1.83679188
F  -0.56558540 -2.25197822 -1.61246664
F   1.51854576 -1.88698245 -2.52427584
F  -0.07659346 -0.23108609 -2.60052386
F   0.90474261 -0.80219153 -0.59208587

