31
Total Energy                               R     -6.721125027298447E+02
C  -0.20382103 -0.86500208 -0.05062212
C  -1.23867625 -1.78990032 -0.01651187
C  -2.55950591 -1.34683738  0.01473925
N   1.77489852  0.25771431 -0.48124551
O  -4.14668099  0.39536271  0.04108787
C  -0.48942583  0.49544671 -0.05475784
C  -1.79934635  0.95499372 -0.02560093
C  -2.83500264  0.01994447  0.01064954
C   0.79151350  1.29300569 -0.05524933
C   1.28958430 -1.08281722 -0.04782744
C   1.73561475 -2.12854919 -1.07174091
C   1.77117107 -1.52783167  1.34360274
O   3.08701905  0.53603413 -0.10978837
C   1.04682554  1.89845850  1.33589003
C   0.78248856  2.42569487 -1.08370308
H  -1.03313627 -2.85697366 -0.01316286
H   1.37333651 -3.12906893 -0.81099361
H   1.36466481 -1.87747250 -2.07003576
H  -3.38410381 -2.05214399  0.04124466
H   1.41739682 -0.86637783  2.13694324
H   1.40746880 -2.53722489  1.56425089
H  -2.02365477  2.01964219 -0.02948086
H   0.53201418  2.04540111 -2.07854538
H   0.06029326  3.20619552 -0.82070904
H  -4.21531331  1.35633847  0.03601985
H   0.32024660  2.69094501  1.54418782
H   0.96799699  1.15679352  2.13324393
H   2.82859144 -2.16740354 -1.11221523
H   2.86279978 -1.53377972  1.37088474
H   2.05213123  2.32381283  1.36707642
H   1.77375529  2.88650493 -1.13359456

