32
Total Energy                               R     -5.396383388859457E+02
C  -0.02928533  0.43155553  1.26795236
C   1.45458672  0.68114708 -1.60326983
C   1.45458672  0.68114708  1.60326983
N  -0.52066946  1.03067418 -0.00000000
O  -0.29996442  2.43117339 -0.00000000
C  -0.02928533  0.43155553 -1.26795236
C  -0.86403696  1.01718831  2.41368766
C  -0.86403696  1.01718831 -2.41368766
C  -0.31514850 -1.07905343 -1.24266096
C   0.24003717 -1.74179534  0.00000000
N  -0.13544250 -3.19277284  0.00000000
C  -0.31514850 -1.07905343  1.24266096
H   1.71336594  1.72985037 -1.44274694
H   1.63780015  0.45245217 -2.65764906
H   2.14266785  0.07058600 -1.01817442
H   1.71336594  1.72985037  1.44274694
H   2.14266785  0.07058600  1.01817442
H   1.63780015  0.45245217  2.65764906
H  -0.62083924  2.06583458  2.59459675
H  -0.66999758  0.46624769  3.33927103
H  -1.93299656  0.94539915  2.19290341
H  -0.62083924  2.06583458 -2.59459675
H  -1.93299656  0.94539915 -2.19290341
H  -0.66999758  0.46624769 -3.33927103
H  -1.39972966 -1.23968645 -1.26714507
H  -1.39972966 -1.23968645  1.26714507
H   0.10647985 -1.53822998  2.14247329
H   0.23266929 -3.66702271 -0.82470473
H  -1.14976991 -3.30901671  0.00000000
H   0.23266929 -3.66702271  0.82470473
H   0.10647985 -1.53822998 -2.14247329
H   1.32981469 -1.73581926  0.00000000

