38
Total Energy                               R     -9.550158623231823E+02
C   0.20770798 -1.09340477 -0.02919235
C   3.03829831  2.01205612 -0.78984153
C   1.87411175 -2.60464313 -1.10516355
N   2.47362886 -0.32664241 -0.59035894
O   3.84841770 -0.65031417 -0.55435883
C   1.68028557 -1.46967100 -0.08229063
C   2.08975239 -2.00542341  1.30996006
C   2.24454047  0.99316800  0.04278353
C   0.75842064  1.31827764 -0.01685530
C  -0.20837999  0.26985805 -0.04282703
C  -0.74099312 -2.08748551  0.07532793
C  -2.10662131 -1.79341882  0.09920318
C  -2.51783000 -0.49119754  0.00733680
C  -1.99476524  1.95694633  0.02325090
N  -3.95631181 -0.27909407 -0.06130521
O  -4.67960348 -1.01421422  0.59514532
O  -4.39088969  0.59881440 -0.79107277
C  -1.60263844  0.59781605 -0.03246310
C  -1.04403291  2.93861787  0.06558339
C   0.32497536  2.62114038  0.04227697
C   2.69940489  1.11855959  1.51549041
H   2.70016132  2.01378489 -1.83005018
H   2.94108349  3.02391596 -0.39427938
H   1.03769799  3.43451198  0.09105658
H   1.51662856 -2.30052072 -2.09285318
H  -0.44788979 -3.12786475  0.12588157
H   1.34844758 -3.51468383 -0.81302338
H   2.93403532 -2.84720593 -1.18238955
H   1.65229397 -2.99407801  1.47147818
H   3.17572036 -2.10185327  1.36486538
H   4.09731584  1.75746434 -0.77341249
H   3.69104061  0.67958762  1.64788438
H   2.75491181  2.17343053  1.79824508
H  -2.83436330 -2.59384205  0.14822558
H  -3.04105762  2.22614599  0.05153682
H  -1.34768751  3.97841994  0.12446056
H   2.00875607  0.63471393  2.20681970
H   1.75487161 -1.36323435  2.12401559

