38
Total Energy                               R     -9.547071389687376E+02
C  -0.77497501  1.32637056 -0.03896268
C  -1.72686477 -2.17240752 -1.61450215
C  -0.37205515  2.62092574 -0.22790308
N  -2.55979745 -0.28732738 -0.30704358
O  -3.58427969 -0.39285660 -0.87492060
C  -1.65966146 -1.50054995 -0.23589074
C  -3.24034957  2.04918112 -0.06072985
C  -2.28804712 -2.41510482  0.83456713
C  -2.21099604  1.01794920  0.35912316
C  -0.23073598 -1.08313264  0.06356295
C   0.18140168  0.27422804 -0.01946181
C   0.99865066  2.92878333 -0.33164464
C   1.95002405  1.95349989 -0.22615631
C   2.47371922 -0.48440524  0.09152644
N   3.91936574 -0.27183099  0.01889072
O   4.35527920  0.46963689 -0.84418886
O   4.62275800 -0.87301511  0.81176399
C   1.56746997  0.59707919 -0.07277673
C   2.06557623 -1.77067762  0.30215942
C   0.69792454 -2.07445488  0.25597353
C  -2.28914623  0.76592176  1.88104426
H  -2.74409930 -2.48782438 -1.84286472
H  -1.09011865 -3.05581485 -1.58621439
H  -1.36216117 -1.50007231 -2.39312613
H  -3.20800047  2.24162568 -1.13427672
H  -1.08872150  3.43146495 -0.25132861
H  -3.04043700  2.97635650  0.47426799
H  -4.24189665  1.72157387  0.21748649
H  -2.13649451  1.73674679  2.35461387
H  -3.27370024  0.38577176  2.15899677
H  -3.34040299 -2.58366663  0.60233415
H  -2.19123754 -2.00847485  1.83934963
H  -1.77410995 -3.37506184  0.79269363
H   1.29875577  3.96244311 -0.45844439
H   2.99567722  2.22584920 -0.25649502
H   2.79156230 -2.56196387  0.43844777
H   0.40108558 -3.11360778  0.32233114
H  -1.51434929  0.08940500  2.23848888

