36
Total Energy                               R     -9.740386082879220E+02
C   0.45828496 -1.40423892 -0.04817892
C  -2.54423373  1.71452726  1.35421113
C   2.91739671 -1.50711702  0.02724508
N  -2.90151371 -0.02420507 -0.48403160
O   3.58233410 -1.32811885  1.17161600
C   1.65495325  0.70389522 -0.04056505
C   0.43986918  1.39588203 -0.04836800
C   2.93537377  1.44724036 -0.14826528
C   1.65951166 -0.69866792 -0.03241978
C  -0.73928638 -0.70500267 -0.05718235
C  -2.51438679 -1.74858116  1.36322244
C  -2.15029610 -1.23189235 -0.04029036
C  -2.37008076 -2.35920237 -1.05003752
O  -4.24661812 -0.03341904 -0.14024581
O   3.25740345 -2.29883541 -0.81696280
C  -2.16646911  1.19502361 -0.04409605
C  -2.39739107  2.31374733 -1.06090129
O   2.83910494  2.71720018  0.26043642
O   3.96467043  0.98295389 -0.58150949
C  -0.74796939  0.68569191 -0.05483813
H  -2.00661779 -2.69712651  1.56522137
H  -2.23765853 -1.04786001  2.15314831
H  -2.26916411  1.01829284  2.14867438
H   4.39414873 -1.85824548  1.14961980
H   0.47033644 -2.48987560 -0.03867209
H  -1.79904547 -3.25537468 -0.78586238
H  -2.04261030  2.66645563  1.55625346
H  -3.62505828  1.86607242  1.39576056
H   0.43841700  2.47982130 -0.07231780
H  -1.84066825  3.21944097 -0.79844996
H  -2.07463758 -2.04342274 -2.05486264
H   3.69296583  3.15400499  0.12087151
H  -3.59412535 -1.90530496  1.41203935
H  -3.42980707 -2.62943183 -1.07320500
H  -3.46072811  2.56887887 -1.09139648
H  -2.09196679  1.99703209 -2.06249126

