36
Total Energy                               R     -9.737577304611516E+02
C   0.43527116 -1.40297345  0.00482699
C  -2.49103483  2.04757660  1.26723824
C   2.89253039 -1.50720575  0.09355087
N  -2.95470491  0.00000005 -0.00000024
O   3.73387956 -1.02684649  1.01045100
C   1.63567216  0.70145360 -0.00938425
C   0.43527123  1.40297339 -0.00482690
C   2.89253048  1.50720554 -0.09355062
C   1.63567213 -0.70145373  0.00938448
C  -0.75236608 -0.69225128  0.00009715
C  -2.48924782 -2.03831975  1.28000898
C  -2.13859961 -1.27015432  0.00328353
C  -2.49103484 -2.04757653 -1.26723841
O  -4.12790501  0.00000008  0.00000050
O   3.10224298 -2.50313860 -0.55074344
C  -2.13859954  1.27015438 -0.00328367
C  -2.48924761  2.03831985 -1.28000914
O   3.10224349  2.50313794  0.55074424
O   3.73387889  1.02684705 -1.01045186
C  -0.75236605  0.69225126 -0.00009724
H  -1.85412784 -2.92543645  1.30673932
H  -2.29395129 -1.43713008  2.16948633
H  -2.29840183  1.45232759  2.16129034
H   4.54528455 -1.55867143  1.01429259
H   0.43469745 -2.48704027  0.02561555
H  -1.85457711 -2.93388473 -1.28935081
H  -1.85457704  2.93388474  1.28935074
H  -3.53472771  2.36497117  1.24629925
H   0.43469755  2.48704021 -0.02561545
H  -1.85412759  2.92543653 -1.30673938
H  -2.29840170 -1.45232758 -2.16129051
H   4.54528389  1.55867197 -1.01429363
H  -3.53344240 -2.35433179  1.26346241
H  -3.53472775 -2.36497101 -1.24629950
H  -3.53344218  2.35433190 -1.26346266
H  -2.29395099  1.43713021 -2.16948650

