30
Total Energy                               R     -3.170178343951883E+03
C  -1.54265108  1.36663994  0.01035499
C  -1.72068249  2.07597394  1.35927354
C  -1.59525115  2.33797118 -1.16327291
N  -2.68849950  0.39039839 -0.11199227
O  -3.80048154  0.72967952 -0.25788415
C  -2.28200161 -1.05986468 -0.00008351
C  -2.84462583 -1.56542015  1.33456926
C  -2.85418284 -1.81918563 -1.19258534
C  -0.78636688 -0.91511403 -0.00314902
C  -0.38306916  0.41115438 -0.00477041
C   0.95874939  0.75674699 -0.00658873
C   1.88398683 -0.27859176 -0.00505175
Br   3.73992097  0.14692040 -0.00940419
C   1.49849566 -1.61626023 -0.00196566
C   0.14680717 -1.93954263 -0.00176663
H  -2.64028957  2.66311373  1.35899816
H  -0.86801088  2.74546982  1.48329436
H  -1.73324429  1.36231842  2.18442963
H  -2.51281361  2.92690072 -1.13292519
H  -1.52210759  1.81070396 -2.11546574
H  -0.74314368  3.01257970 -1.06688976
H  -3.93529402 -1.53851643  1.31881812
H  -2.46912232 -0.97592560  2.17210456
H  -2.51313882 -2.59837856  1.45165387
H  -3.94461190 -1.79975013 -1.17285253
H  -2.52041170 -2.85459007 -1.10864405
H  -2.49077392 -1.40644464 -2.13467542
H   1.26673678  1.79580618 -0.00867627
H   2.24143960 -2.40464627 -0.00162233
H  -0.16434732 -2.97812348 -0.00116456

