52
Total Energy                               R     -3.809374256488958E+03
C  -0.72641760  0.19299492  1.30964208
C  -0.90260388 -0.38692928  2.71294005
C   0.23986935 -0.71365295  0.52789585
N  -0.33355895  1.62669067  1.41168388
O   1.04008744  1.82394064  1.62182705
C  -0.87947070  2.37603754  0.24617684
C  -1.18918024  3.81245041  0.66643218
C   0.01506818  2.41723337 -1.00596137
C  -2.12166251  1.56994221 -0.03960625
C  -2.03210382  0.32205283  0.56570586
C  -3.04213645 -0.61779770  0.42233456
C  -4.14651923 -0.26861354 -0.34807671
Br  -5.55955557 -1.53581622 -0.56385140
C  -4.25584937  0.97378147 -0.96243978
C  -3.22905252  1.90367429 -0.80457688
H   0.04813696 -0.35720384  3.25383552
H  -1.22871473 -1.43064461  2.67126674
H  -1.64151078  0.18248442  3.28304875
H   1.22301368 -0.72826523  1.00179968
H   0.36328343 -0.40208284 -0.51012445
H  -0.14492699 -1.73781923  0.52224250
H  -0.26939805  4.32279691  0.96824716
H  -1.88668680  3.83355864  1.50793006
H  -1.62856858  4.38000243 -0.15962948
H   0.96281637  2.91456111 -0.78736798
H  -0.48976709  2.98248912 -1.79516519
H   0.23257841  1.42281164 -1.39712103
H  -2.97255702 -1.59164401  0.89496289
H  -5.12798529  1.22162173 -1.55630642
H  -3.30888294  2.87560469 -1.28175406
N   4.35066085  1.41996305 -0.67153629
C   5.48007098  1.30880275 -1.63589373
C   3.17330611  0.66559540 -1.18976943
C   4.76149313  0.84948493  0.64319619
C   3.98197506  2.85293646 -0.49558916
H   2.87131128  1.10224082 -2.14055540
H   5.73736006  0.25748485 -1.75249543
H   5.16683044  1.72707942 -2.59098619
H   6.33149679  1.86290586 -1.24415080
H   4.85080963  3.39283006 -0.12231833
H   3.67425422  3.25620200 -1.45878466
H   3.16262286  2.91573691  0.21889850
H   5.04371257 -0.19075336  0.49827217
H   5.60635875  1.42307591  1.02160602
H   3.91925726  0.91866534  1.32991280
H   3.45826041 -0.37483735 -1.32656036
H   2.37061149  0.74926025 -0.46192678
B   3.68242251 -2.94195128 -0.01512368
F   4.85228067 -2.44357971 -0.63033667
F   2.59361091 -2.80006869 -0.89989505
F   3.86179623 -4.30644128  0.29470314
F   3.43092154 -2.22001001  1.16814300

