52
Total Energy                               R     -3.809075099334191E+03
C   0.98390027  0.38218034 -1.60061366
C   2.05836201 -0.52401316 -2.19021743
C   0.21411228  1.14789848 -2.68429343
N   1.64260462  1.42654347 -0.72929448
O   2.51095183  2.11459887 -1.10824875
C   1.05332508  1.53557761  0.65868058
C   2.17682942  1.48600342  1.68638347
C   0.29040350  2.86778891  0.69733337
C   0.14155307  0.34241794  0.65078953
C   0.09309313 -0.27901253 -0.58723697
C  -0.72767833 -1.37245750 -0.81324469
C  -1.50145204 -1.81945779  0.24918196
Br  -2.66926855 -3.29726388 -0.02180922
C  -1.45824997 -1.21541316  1.50261926
C  -0.62575816 -0.12157418  1.70713859
H   2.73642078  0.04753491 -2.82511302
H   1.54919610 -1.26945979 -2.80371455
H   2.61995148 -1.03090680 -1.40633267
H   0.91171357  1.66220611 -3.34689612
H  -0.48075423  1.86746427 -2.25065560
H  -0.35051074  0.41207649 -3.25911964
H   2.87408931  2.31111883  1.53626515
H   2.70648831  0.53577425  1.64321742
H   1.71821098  1.59107562  2.67106926
H   0.98409902  3.70206667  0.58087691
H  -0.18991235  2.93359765  1.67462735
H  -0.47762656  2.90915263 -0.07581099
H  -0.76691840 -1.84863995 -1.78589667
H  -2.07136831 -1.58692883  2.31468763
H  -0.59084581  0.36182977  2.67698453
N  -4.01690090  1.93580856  0.13575976
C  -3.06006135  1.59884717 -0.95627496
C  -5.05348612  2.87209616 -0.38364263
C  -4.67199424  0.68864247  0.62407595
C  -3.27754448  2.58226642  1.25807095
H  -4.55982322  3.77344326 -0.74308629
H  -3.60736092  1.12173262 -1.76771782
H  -2.59306038  2.51776545 -1.30613297
H  -2.30978183  0.91974713 -0.55972873
H  -2.52569688  1.88648151  1.62511408
H  -2.80350039  3.48913976  0.88774842
H  -3.98563005  2.82333719  2.04894694
H  -5.19726650  0.22194574 -0.20734006
H  -3.90427810  0.01914273  1.00758963
H  -5.37339161  0.94804766  1.41517733
H  -5.58747284  2.38614279 -1.19817308
H  -5.74088089  3.11723996  0.42398860
B   5.05377708 -0.53402070  0.43620401
F   3.92998295 -1.37208376  0.60646235
F   5.45219186 -0.02582205  1.68984691
F   6.10946076 -1.27555104 -0.13139250
F   4.71855993  0.53659163 -0.41825443

