52
Total Energy                               R     -3.809263526084304E+03
C   0.75117323  0.20533622 -1.05404341
C   1.54725615 -0.89298520 -1.75778302
C   0.24963669  1.25044882 -2.05039956
N   1.58847527  0.86089325 -0.01963860
O   2.62209164  1.52954672 -0.31974027
C   1.07546239  0.79070911  1.37085958
C   2.08286122  0.06612535  2.26393028
C   0.79059234  2.19964450  1.88955626
C  -0.17965775 -0.01278274  1.14885359
C  -0.35333190 -0.34301184 -0.18786202
C  -1.44359193 -1.09065508 -0.60654290
C  -2.35898562 -1.48955128  0.35753435
Br  -3.86867721 -2.52433282 -0.17976374
C  -2.20909368 -1.16098415  1.70119368
C  -1.10489155 -0.41497006  2.10025911
H   2.42976571 -0.47154494 -2.24594511
H   0.92360979 -1.36205984 -2.52253160
H   1.86697331 -1.66217596 -1.05149909
H   1.08844721  1.67732236 -2.60530982
H  -0.28376273  2.05400980 -1.53862069
H  -0.43037066  0.77927503 -2.76365275
H   3.03614618  0.60094340  2.27600865
H   2.25431729 -0.95462488  1.91545601
H   1.69953796  0.02390888  3.28620607
H   1.71824108  2.77224321  1.96261822
H   0.34591388  2.13841861  2.88556444
H   0.09771288  2.72666627  1.23058459
H  -1.57736996 -1.34587531 -1.65161526
H  -2.94167540 -1.48065320  2.43258254
H  -0.97886450 -0.15496197  3.14613830
N   5.79769283 -0.48946564 -0.25238165
C   4.66888110 -1.39178265  0.11114992
C   7.07616227 -1.25359181 -0.22237889
C   5.57112465  0.05580553 -1.62155918
C   5.86616063  0.63537248  0.72457268
H   7.22480222 -1.64521281  0.78252448
H   4.62589848 -2.20690600 -0.60947925
H   4.84118068 -1.78119118  1.11301273
H   3.74978668 -0.81491884  0.08453323
H   4.92934050  1.18794530  0.68441734
H   6.01975199  0.22397674  1.72079767
H   6.69828449  1.28289236  0.45286647
H   5.50871783 -0.77523779 -2.32206163
H   4.64095983  0.62116375 -1.62135034
H   6.40625884  0.70420649 -1.88117787
H   7.01135177 -2.07079646 -0.93883212
H   7.89138389 -0.58348519 -0.48951517
B  -3.61378152  2.21915987 -0.38944397
F  -2.42292273  2.54939412  0.28846812
F  -4.32034251  3.40377537 -0.69665507
F  -3.30886169  1.53744503 -1.58520771
F  -4.41256068  1.40020675  0.43397817

