54
Total Energy                               R     -1.311167208066104E+03
C   0.57671479  0.44713852  1.49121949
C   0.33755841 -0.99065538  1.95106614
C   1.93861459  0.92807904  2.01083341
N   0.58319164  0.45516595 -0.00438624
O   1.24332105 -0.47569114 -0.57544927
C   0.27848886  1.65164842 -0.83894094
C   1.52826773  2.54295801 -0.93182305
C  -0.07530750  1.19258849 -2.25622160
C  -0.88344392  2.46109631 -0.21817434
C  -2.26491769  1.90647736 -0.49775306
O  -3.20405686  2.60472886 -0.83450934
O  -2.38610597  0.60193456 -0.30178184
C  -0.70659388  2.65902850  1.29683917
C  -0.55772690  1.33319462  2.02653531
H   1.17965781 -1.64212126  1.71275574
H  -0.56708377 -1.40259016  1.49637244
H   0.20383844 -0.99180231  3.03581346
H   2.75209843  0.36439618  1.54991292
H   1.98431638  0.76251816  3.09034101
H   2.10453667  1.99057059  1.82814108
H   2.38294616  1.94851922 -1.26192615
H   1.78346588  3.02261095  0.01244132
H   1.35414851  3.32661431 -1.67324801
H   0.80734952  0.83157815 -2.78441835
H  -0.47004300  2.04859476 -2.80995592
H  -0.82576040  0.40184299 -2.26076934
H  -0.87157154  3.44080398 -0.69902504
H  -3.30762441  0.30875304 -0.44850814
H  -1.56225351  3.21055008  1.69490543
H   0.17029628  3.28984133  1.46031077
H  -1.49637595  0.77725476  1.97821496
H  -0.35879924  1.51527727  3.08600492
N   5.14645433 -1.28102764 -0.33138234
C   4.54204860 -0.12084895 -1.04810755
C   6.06979083 -2.00451454 -1.25040439
C   5.90536743 -0.78841841  0.85326299
C   4.07177810 -2.21001603  0.12213724
H   5.50181265 -2.35396306 -2.11097663
H   5.34358009  0.53102621 -1.39124690
H   3.96846181 -0.49170386 -1.89542304
H   3.89373630  0.41354981 -0.35833503
H   3.41266246 -1.67923595  0.80543559
H   3.51470306 -2.55295934 -0.74764876
H   4.53505489 -3.05451021  0.62933200
H   6.68730354 -0.11285605  0.51067180
H   5.21714034 -0.26421563  1.51457715
H   6.34422134 -1.64222589  1.36656867
H   6.85328500 -1.31963117 -1.56975837
H   6.50358565 -2.84899271 -0.71745277
B  -4.80406841 -1.91898076 -0.12358046
F  -6.02328573 -2.25369815  0.48289237
F  -4.60566659 -2.69157605 -1.27798122
F  -4.84120202 -0.53623578 -0.49681368
F  -3.74262031 -2.11247588  0.77593436

