54
Total Energy                               R     -1.311274522161907E+03
C  -3.50577004  0.08864628  1.16518160
C  -3.45184208  1.06896072  2.34277845
C  -4.99527270 -0.25195102  0.98135017
N  -2.93286581  0.77198477 -0.04185251
O  -1.64529464  1.27092901  0.30483813
C  -2.73387375 -0.10046646 -1.23058191
C  -4.05414374 -0.61159434 -1.84196373
C  -2.12321198  0.75853733 -2.34546727
C  -1.85393925 -1.35220710 -0.87150997
C  -0.37253736 -1.07770151 -0.74144202
O   0.33941586 -0.70371504 -1.66106621
O   0.16260233 -1.40976413  0.43740449
C  -2.45057636 -2.09204712  0.33629745
C  -2.70975950 -1.17709197  1.53289916
H  -4.01462807  1.98156341  2.11651884
H  -2.43226510  1.35023327  2.60196938
H  -3.90846758  0.60673072  3.22348237
H  -5.52727137  0.56217139  0.48152372
H  -5.45262806 -0.38950721  1.96529512
H  -5.17841977 -1.16895346  0.42554896
H  -4.79996708  0.18628182 -1.86000892
H  -4.49006146 -1.47236974 -1.34271543
H  -3.86709243 -0.91191310 -2.87644578
H  -2.85586655  1.51279154 -2.65195644
H  -1.89521752  0.14198456 -3.21893244
H  -1.21714781  1.27052360 -2.04029107
H  -1.90550524 -2.01249137 -1.74549962
H   1.12745149 -1.26698746  0.42512306
H  -1.79594992 -2.91564416  0.63047723
H  -3.38682925 -2.55969047  0.02122536
H  -1.75872021 -0.88188977  1.98159059
H  -3.25825142 -1.73116870  2.30315779
N   2.23079750  2.58998552  0.02135119
C   3.16484927  1.62301577 -0.62222610
C   2.99430577  3.77131345  0.51169884
C   1.21607912  3.02996022 -0.97736520
C   1.54478624  1.92898049  1.16890137
H   3.72942603  3.43428620  1.24063722
H   3.65436585  2.11696718 -1.45994981
H   3.90331751  1.30894608  0.11191140
H   2.59059421  0.76826849 -0.97152143
H   0.98014745  1.07851336  0.79513597
H   2.29828282  1.60122087  1.88250013
H   0.87256312  2.64827891  1.63344587
H   1.72728557  3.53668566 -1.79425527
H   0.69401024  2.15103764 -1.34877298
H   0.51565510  3.70725560 -0.49227071
H   3.49235910  4.24151797 -0.33437166
H   2.29916770  4.46995129  0.97416553
B   3.91057600 -1.80506036  0.24462785
F   4.02700141 -3.17001473  0.55704540
F   3.65224074 -1.64671526 -1.12669271
F   2.82577017 -1.25295553  0.98979002
F   5.08975552 -1.12707132  0.59573912

