37
Total Energy                               R     -1.096750122942168E+03
C  -1.01327685 -0.95215964 -1.36471751
C  -0.03992751 -1.58980947 -2.34677990
C  -2.45786339 -1.32411689 -1.75156558
N  -0.77649551 -1.57920987  0.00420869
O  -0.34469685 -2.67430120  0.04525657
C  -1.14839101 -0.90675052  1.32154517
C  -2.62713591 -1.25791492  1.57754911
C  -0.28032579 -1.51308123  2.41583438
C  -0.91231428  0.60313069  1.20663852
C  -1.47793020  1.20874574 -0.08146245
C  -1.30911670  2.71056847 -0.03964975
O  -2.17504776  3.47965295  0.30018365
O  -0.08491951  3.11222727 -0.38899711
C  -0.78996808  0.56230138 -1.27873494
H  -0.26154694 -2.64294578 -2.52050985
H   0.99100899 -1.48273675 -2.00947191
H  -0.15118466 -1.05900577 -3.29405347
H  -2.61797907 -2.40144943 -1.67803167
H  -2.57723977 -1.02942847 -2.79574723
H  -3.21224003 -0.80662479 -1.16349115
H  -2.79795992 -2.33229569  1.48570576
H  -3.31820506 -0.72639677  0.92703278
H  -2.83419450 -0.96426038  2.60809213
H  -0.52382487 -2.55976208  2.59954487
H  -0.48279520 -0.95257286  3.33023423
H   0.77971739 -1.41942503  2.17990062
H   0.16099656  0.79723601  1.26447901
H  -1.37831334  1.05024385  2.08772149
H  -2.55595985  1.05040919 -0.12314060
H  -0.03174294  4.07686335 -0.30582923
H   0.28320336  0.75499529 -1.23770999
H  -1.16357377  0.97758239 -2.21741705
B   2.93707287  0.10539943  0.07853155
F   1.94535921 -0.90348591  0.13643604
F   2.83719800  0.78569844 -1.15059967
F   2.74413777  1.00971475  1.14108499
F   4.20849936 -0.49071266  0.18831035

