30
Total Energy                               R     -5.967952609536551E+02
C   0.00645262 -0.71880037  1.25572297
C  -1.30008893 -1.04901472  1.97967910
C   0.00594761  1.87382803  1.40366668
N   0.09702096 -1.50426391  0.00000000
O   0.08723472 -2.77238231  0.00000000
C   0.01045174  0.68025684  0.69465400
C   1.21460082 -1.01089795  2.14256038
C   0.00202909  3.07372265  0.69749520
C   0.00645262 -0.71880037 -1.25572297
C   0.01045174  0.68025684 -0.69465400
C   0.00202909  3.07372265 -0.69749520
C  -1.30008893 -1.04901472 -1.97967910
C   0.00594761  1.87382803 -1.40366668
C   1.21460082 -1.01089795 -2.14256038
H  -1.38773726 -0.42965672  2.87553353
H  -1.31235087 -2.09819561  2.28471525
H  -2.16301221 -0.85645071  1.33775718
H   0.00577520  1.87299300  2.48931088
H   0.00577520  1.87299300 -2.48931088
H  -0.00060330  4.01538764  1.23633959
H   2.14808909 -0.78031740  1.62387388
H   1.22449854 -2.06241535 -2.43946613
H   1.22449854 -2.06241535  2.43946613
H   1.16047093 -0.40145890  3.04770766
H  -0.00060330  4.01538764 -1.23633959
H   2.14808909 -0.78031740 -1.62387388
H  -2.16301221 -0.85645071 -1.33775718
H  -1.38773726 -0.42965672 -2.87553353
H  -1.31235087 -2.09819561 -2.28471525
H   1.16047093 -0.40145890 -3.04770766

