64
Total Energy                               R     -1.766258306540229E+03
C  -1.77080445 -1.91642266 -0.52789812
C  -3.16445392 -1.84794199  0.06506807
C  -1.53963291 -3.32122520 -1.13013058
N  -1.73464600 -0.94196188 -1.68141926
O  -2.72005280 -0.38913304 -2.00483383
C  -0.48416761 -0.68906819 -2.48003919
C  -0.66790392 -1.48101754 -3.79057896
C  -0.44665188  0.81858086 -2.76856247
C   0.73682229 -1.09068844 -1.67787914
C   0.67191409 -1.33090288 -0.27833600
C  -0.58241663 -1.55876448  0.36792962
C  -0.62059930 -1.63442199  1.73921469
C  -1.84254724 -1.76898122  2.59846057
O  -2.48890949 -0.82712695  2.99233915
O  -2.06698532 -3.02700149  2.96921305
C   0.57762405 -1.58291047  2.49112454
C   1.79042195 -1.47526413  1.88278899
C   1.87779981 -1.33618554  0.47661633
C   3.12104210 -1.22451764 -0.21214253
C   4.44312188 -1.15449187  0.47378606
O   5.42911233 -1.74631768  0.08835508
O   4.45866947 -0.33054068  1.51977775
C   3.14575978 -1.14142145 -1.58060281
C   1.95234078 -1.03922214 -2.30979863
H  -3.89800605 -2.07955716 -0.70732016
H  -3.39258935 -0.87071396  0.48581588
H  -3.26450798 -2.61915956  0.82583433
H  -2.28945419 -3.53763217 -1.89237649
H  -1.65997150 -4.02393844 -0.30446635
H  -0.54076221 -3.45081197 -1.54330401
H  -1.61512516 -1.20571520 -4.25606653
H  -0.63042370 -2.55749240 -3.63282495
H   0.13843713 -1.19455031 -4.46503455
H  -1.30958133  1.12118042 -3.36068621
H   0.45767573  1.02652991 -3.33906135
H  -0.42079440  1.38414416 -1.83890403
H  -2.82339417 -3.06288211  3.57446875
H   0.52215365 -1.66824258  3.57065304
H   2.68748803 -1.49561918  2.48534590
H   5.34006292 -0.32724855  1.92021475
H   4.09237029 -1.07868609 -2.10425242
H   2.01291600 -0.85820147 -3.37606826
N   1.55397216  3.32894081  0.32587545
C   0.95764040  3.81033716  1.60431538
C   1.55641757  1.83767806  0.31535224
C   0.74704476  3.83737848 -0.81917639
C   2.95389724  3.82447873  0.20753515
H   2.16527275  1.48995536  1.14759703
H  -0.06552236  3.44501971  1.67056208
H   1.55131795  3.42657862  2.43218774
H   0.96919412  4.89913027  1.60711310
H   2.94311552  4.91307354  0.22008799
H   3.53055926  3.44473034  1.04926395
H   3.37481938  3.46366003 -0.72929675
H  -0.27429103  3.47734425 -0.71531485
H   0.76377893  4.92597385 -0.80107075
H   1.18436718  3.46976708 -1.74579472
H   0.53154112  1.48991272  0.42282364
H   1.97827959  1.49861808 -0.63001490
B  -2.73877300  2.17782567  0.27133277
F  -1.70849956  1.21092949  0.28866601
F  -3.97059877  1.55040698  0.53965045
F  -2.47736543  3.15256454  1.25464865
F  -2.78476187  2.78696317 -0.99841606

