64
Total Energy                               R     -1.766555825932814E+03
C  -0.20175835  0.96985651  0.35187341
C   0.36592987  2.25016523  0.98426708
C   0.51819038  0.70043347 -0.99008480
N  -0.00307445 -0.08738884  1.38143784
O   1.36468139 -0.19614089  1.70452748
C  -0.53238466 -1.43074082  1.06527960
C   0.27207291 -2.24372860  0.02402995
C  -0.50716681 -2.21344485  2.39259994
C  -1.97104277 -1.30974645  0.59688566
C  -2.53451604 -0.05859116  0.20721331
C  -1.70238849  1.10466042  0.08106932
C  -2.29484735  2.27720194 -0.34409501
C  -1.61505710  3.58642691 -0.59695052
O  -1.78340748  4.57580069  0.08363303
O  -0.90422104  3.60072407 -1.72426504
C  -3.68096009  2.34620316 -0.62315361
C  -4.47579675  1.24760227 -0.52162839
C  -3.92814341  0.00789245 -0.11056458
C  -4.70883042 -1.18610426 -0.07704846
C  -6.17436408 -1.23857716 -0.31673376
O  -6.72630295 -2.13863559 -0.91962061
O  -6.86066003 -0.23878211  0.24214511
C  -4.10275889 -2.38901457  0.19166315
C  -2.74886000 -2.44407335  0.53640315
H   1.35830029  2.03172275  1.37191545
H  -0.25677790  2.59454228  1.81438990
H   0.48288526  3.05984059  0.26625365
H   1.48111753  0.22748693 -0.80073284
H   0.69495941  1.63199653 -1.53013496
H  -0.06402284  0.04842790 -1.64334793
H   1.33703619 -2.16500518  0.24077123
H   0.09986505 -1.91165438 -0.99907650
H  -0.01030122 -3.29833635  0.07917220
H   0.51799702 -2.28209197  2.75824357
H  -0.88377132 -3.23053996  2.27317266
H  -1.11221289 -1.70857251  3.15087706
H  -0.52491041  4.48211270 -1.85815326
H  -4.10629271  3.28912571 -0.95076343
H  -5.52270028  1.32542021 -0.77876246
H  -7.80255150 -0.34776184  0.04721315
H  -4.68763570 -3.30192213  0.18243861
H  -2.32420243 -3.40966301  0.78115753
N   5.08048590  1.53280686  0.37478082
C   4.57177360  0.86851357  1.60907471
C   6.21560593  0.74396735 -0.18201610
C   3.98739044  1.60476548 -0.63634184
C   5.54453117  2.90852956  0.70705220
H   7.01164138  0.70484824  0.55989841
H   4.21751931 -0.12674130  1.34860093
H   5.38627681  0.80585662  2.32914475
H   3.75646220  1.46511628  2.01392850
H   4.70222321  3.47565878  1.09966602
H   6.33335945  2.84124161  1.45445704
H   5.92414814  3.37815506 -0.19874374
H   3.68713491  0.59144438 -0.89266879
H   3.15170467  2.15507015 -0.20871988
H   4.36545399  2.11926576 -1.51865501
H   5.86481176 -0.26084171 -0.41001696
H   6.56970555  1.23265663 -1.08832069
B   3.95750510 -2.60887867 -1.03235511
F   3.34060278 -1.54983998 -1.73013601
F   3.23904486 -3.80111058 -1.25873933
F   5.28289846 -2.76114476 -1.49364042
F   3.97333588 -2.32427175  0.34817294

