56
Total Energy                               R     -1.350224204615428E+03
C  -0.09492567 -1.79914394 -1.30989193
C  -0.44829538 -3.06632511 -2.09668520
C   0.59966875 -0.78669445 -2.21345969
N   0.77360809 -2.14955582 -0.15482957
O   1.92545689 -2.64816120 -0.31267163
C   0.07777269 -2.18058428  1.15911916
C  -0.17265683 -3.63271300  1.58025131
C   0.90741295 -1.45751148  2.21529601
C  -1.19476544 -1.45855699  0.79441504
C  -1.28767839 -1.23703646 -0.57722222
C  -2.36840478 -0.57301675 -1.12396220
C  -3.38230557 -0.11684207 -0.27541448
O  -4.40538327  0.53596648 -0.88053582
C  -5.44045921  1.06315891 -0.06740406
C  -3.30155328 -0.34192034  1.10133596
C  -2.20144654 -1.01491133  1.63288620
H   0.45810856 -3.51943754 -2.50672012
H  -1.11233807 -2.81133148 -2.92667053
H  -0.95291290 -3.79984627 -1.46401010
H   1.51274170 -1.21495205 -2.63315091
H   0.84980704  0.12473964 -1.67093047
H  -0.06228081 -0.52149590 -3.04162274
H   0.77665842 -4.15660349  1.72007797
H  -0.76239985 -4.16694111  0.83196491
H  -0.71927418 -3.65155873  2.52679481
H   1.86672342 -1.96105148  2.35643111
H   0.37493249 -1.46940213  3.16974651
H   1.08863242 -0.41795458  1.93813727
H  -2.44171884 -0.38411867 -2.19028059
H  -6.13194232  1.55829043 -0.74756631
H  -5.05099955  1.79463099  0.64734396
H  -5.96975109  0.26925128  0.46902054
H  -4.07793219  0.00846574  1.76976674
H  -2.14294099 -1.17503612  2.70536166
N   4.03462584  0.85384772 -0.03259894
C   4.35349488  0.09877318  1.21228132
C   5.04335044  1.93044296 -0.23843161
C   4.05732358 -0.08191265 -1.19377589
C   2.67804304  1.46126869  0.09162032
H   5.01002968  2.60877848  0.61252585
H   5.35108086 -0.32675343  1.11641840
H   4.31574456  0.78424808  2.05746115
H   3.61684714 -0.69315862  1.33547762
H   1.95321324  0.66320124  0.22754469
H   2.67240743  2.12689534  0.95249271
H   2.46082910  2.01767414 -0.81789019
H   5.06195764 -0.49189781 -1.28704166
H   3.33906282 -0.88108187 -1.01338418
H   3.79319309  0.47243876 -2.09278984
H   6.02908186  1.47531955 -0.31928639
H   4.79925132  2.46534284 -1.15490789
B  -0.65165247  2.93246613  0.14910452
F  -0.33438876  1.97553115  1.13274349
F   0.16949331  4.06985095  0.32493330
F  -0.43127475  2.39499649 -1.13493013
F  -2.00529953  3.30847467  0.27681719

