33
Total Energy                               R     -6.527215982959660E+02
C  -1.34724343 -1.07552320 -0.04489386
C  -1.79124104 -2.12823881 -1.06043288
C  -1.81916814 -1.51629103  1.35225354
N  -1.80651641  0.26777616 -0.49370584
O  -3.13765757  0.55490750 -0.15156140
C  -0.83373629  1.30401537 -0.05030554
C  -0.79752408  2.43993757 -1.07266478
C  -1.08716372  1.91019693  1.34125596
C   0.43820476  0.49429719 -0.04219526
C   0.14599745 -0.86658717 -0.04120183
C   1.15997430 -1.81097276 -0.01651598
C   2.75053882 -0.02247275  0.00603287
N   4.14814281  0.42891990  0.02714033
C   2.48566414 -1.38149262  0.00743787
C   1.74939969  0.93869410 -0.01940305
H  -2.88359317 -2.15482713 -1.11719394
H  -1.44794262 -3.12640444 -0.77193463
H  -1.40008119 -1.90273127 -2.05599608
H  -2.90692836 -1.61326836  1.38000727
H  -1.51734329 -0.82141157  2.13686987
H  -1.38888875 -2.49374392  1.58996426
H  -1.77665794  2.92455857 -1.13000056
H  -0.53967408  2.06528783 -2.06670252
H  -0.06506345  3.20238444 -0.79025115
H  -2.04591349  2.43353716  1.36185591
H  -0.30155632  2.63604639  1.57164578
H  -1.08878352  1.16024551  2.13319039
H   0.93784181 -2.87303079 -0.01760160
H   3.30064607 -2.09790687  0.02411931
H   4.34554274  1.00323766  0.84862442
H   4.79657303 -0.35945252  0.04348152
H   4.37333703  0.99189416 -0.79510193
H   1.99614652  1.99607584 -0.02272897

