33
Total Energy                               R     -6.524144747697244E+02
C  -1.32603025 -1.13358081  0.00442101
C  -1.83703366 -1.89211240 -1.21807065
C  -1.82915684 -1.73988436  1.31887596
N  -1.85751924  0.27896217 -0.06366674
O  -2.99973586  0.52475741 -0.14961555
C  -0.79399604  1.34881825  0.00487520
C  -0.94858559  2.25534989 -1.21327801
C  -1.00380745  2.10137047  1.32314979
C   0.44015995  0.49332428 -0.00546840
C   0.15113199 -0.86201963 -0.00423195
C   1.16296927 -1.80980913 -0.00951793
C   2.48125571 -1.37626274 -0.01530642
N   4.14601610  0.42232047 -0.00462224
C   2.74678655 -0.01411697 -0.01536382
C   1.74994804  0.94461351 -0.01031580
H  -2.92489794 -1.96761922 -1.19278023
H  -1.41320449 -2.89669902 -1.17852159
H  -1.51800668 -1.41008449 -2.14329962
H  -2.91780626 -1.81083290  1.30962068
H  -1.50058776 -1.15306677  2.17777445
H  -1.40660373 -2.74313818  1.39217922
H  -1.91006385  2.76944273 -1.18604084
H  -0.85418007  1.68974478 -2.14128137
H  -0.15060841  2.99832245 -1.16926958
H  -1.96767655  2.61220695  1.31665093
H  -0.20689537  2.84251422  1.40173851
H  -0.94516071  1.42614119  2.17814029
H   0.93467731 -2.86927574 -0.01158313
H   3.29709361 -2.09053326 -0.02257030
H   4.71099452 -0.11314000 -0.66701988
H   4.23556827  1.40896702 -0.25409795
H   4.56697674  0.30265388  0.91922009
H   1.98694016  2.00321635 -0.01252631

