56
Total Energy                               R     -1.350022754936200E+03
C   0.60243776  0.95590142 -1.18183315
C   1.61623960  0.50956145 -2.22655743
C  -0.40599900  1.96057777 -1.75989455
N   1.31995283  1.67217396 -0.05907943
O   2.09602652  2.52958707 -0.24500666
C   0.91444527  1.21283180  1.32392795
C   2.16078900  0.94999115  2.15899284
C   0.06666786  2.34949553  1.91550130
C   0.11308078 -0.00563083  0.96521726
C  -0.05437898 -0.15027570 -0.40642237
C  -0.78776298 -1.19081821 -0.93790385
C  -1.37369860 -2.10641438 -0.06038538
O  -2.09967191 -3.09608755 -0.64546245
C  -2.79156395 -4.01122261  0.19641355
C  -1.21309377 -1.96976752  1.32101362
C  -0.46306274 -0.91473274  1.83341737
H   2.13696351  1.36886028 -2.65114587
H   1.06025050  0.01132952 -3.02257087
H   2.33450354 -0.19119087 -1.80490175
H   0.11863360  2.81588736 -2.18929708
H  -1.11560419  2.29912479 -1.00459867
H  -0.95431101  1.44407888 -2.54897756
H   2.75835101  1.85683116  2.26184130
H   2.76357549  0.15257735  1.72847397
H   1.82349003  0.64166993  3.15026221
H   0.68263392  3.23495244  2.08106465
H  -0.31711127  1.99446218  2.87331684
H  -0.77585718  2.60157195  1.27134387
H  -0.92740564 -1.30155891 -2.00769449
H  -3.32377093 -4.68387527 -0.47314522
H  -3.50917268 -3.48892229  0.83558934
H  -2.09313033 -4.58555531  0.81050809
H  -1.66632021 -2.67393715  2.00623399
H  -0.34367195 -0.80989831  2.90642883
N  -4.40363415  0.82071302 -0.16105004
C  -3.31564562  1.26740577  0.75432687
C  -3.95467023  0.98139169 -1.57341331
C  -4.71658248 -0.61359944  0.09687762
C  -5.62069755  1.64743094  0.07423654
H  -3.71751217  2.02933839 -1.74775519
H  -2.42943035  0.67093433  0.55541800
H  -3.11288741  2.31990993  0.56429716
H  -3.64240196  1.12680952  1.78323986
H  -5.93459722  1.51940872  1.10874890
H  -5.37639945  2.69076413 -0.11812584
H  -6.40642331  1.31427145 -0.60153508
H  -3.82934839 -1.20492965 -0.11463809
H  -5.00832175 -0.72722880  1.13931318
H  -5.53168502 -0.91574032 -0.55842679
H  -3.07250251  0.36341199 -1.73036916
H  -4.75975811  0.66195981 -2.23306561
B   4.66331867 -0.69966210 -0.20920424
F   5.50861978 -0.88156880  0.90383452
F   5.31177406 -1.14548549 -1.37831562
F   3.47632902 -1.44115178 -0.02098365
F   4.34866982  0.66954292 -0.34011766

