49
Total Energy                               R     -7.537667843521913E+02
C   1.27346124  1.30982112 -0.34699281
C   1.08389809  2.31839805 -1.47885282
C   0.41801347  1.73160734  0.85418249
N   0.82840795 -0.03100678 -0.83588750
O  -0.30012689 -0.06704195 -1.42934571
C   1.33551902 -1.33490293 -0.30875648
C   0.49466774 -1.76373514  0.89998336
C   1.19923461 -2.38150490 -1.41363026
C   2.81790769 -1.20975987  0.06143255
C   3.11171488  0.04797383  0.85232873
N   4.56765545  0.08608108  1.19019536
C   2.76115775  1.26351629  0.01960308
H   0.02869376  2.46553599 -1.71155151
H   1.60456101  1.99833101 -2.38459608
H   1.49973537  3.27948721 -1.16679545
H  -0.63661332  1.76543604  0.57651336
H   0.71672257  2.73467220  1.16869285
H   0.53071529  1.06156861  1.70758924
H  -0.55999331 -1.82609679  0.62475739
H   0.59485147 -1.08202114  1.74584394
H   0.81836738 -2.75568731  1.22480322
H   0.15355432 -2.59154798 -1.64079530
H   1.66651727 -3.31023692 -1.07737818
H   1.70165615 -2.05766115 -2.32828341
H   3.42003467 -1.19184515 -0.85386083
H   3.10132744 -2.10197054  0.62560226
H   2.59198199  0.05281935  1.81063989
H   5.14199442  0.08710858  0.34531813
H   4.83632952 -0.72492224  1.74787246
H   4.79872260  0.92415079  1.72421886
H   3.36103481  1.24058965 -0.89703298
H   3.00668903  2.18591822  0.55224648
N  -3.73791340  0.00345815  0.28683998
C  -2.87977542 -0.00066408  1.50538381
C  -3.52289725 -1.26058360 -0.47413264
C  -5.16884717  0.10475165  0.68964696
C  -3.37816824  1.16672440 -0.57438614
H  -2.47414257 -1.32194437 -0.75987266
H  -3.15635002 -0.85316701  2.12369867
H  -1.84071540 -0.08164643  1.19878408
H  -3.04007845  0.92829909  2.05023158
H  -3.51411424  2.08143367  0.00013985
H  -2.34015731  1.06227042 -0.88555327
H  -4.03267458  1.16928971 -1.44463824
H  -5.41503584 -0.74804268  1.32001946
H  -5.31250749  1.03306178  1.23998450
H  -5.78720110  0.10030758 -0.20606789
H  -3.79134824 -2.10169721  0.16272441
H  -4.15391046 -1.24503737 -1.36138320

