49
Total Energy                               R     -7.538755078590684E+02
C  -2.09603488 -0.87320796  0.84234267
C  -1.83728068 -1.72901041  2.08755097
C  -3.62252123 -0.89189564  0.64263804
N  -1.57711650  0.50997180  1.09123623
O  -0.23401979  0.39970745  1.55798913
C  -1.56776395  1.39223569 -0.11997985
C  -2.98464679  1.83404428 -0.53070846
C  -0.82104267  2.68626094  0.22217483
C  -0.85160988  0.71891803 -1.31106082
C  -1.41792528 -0.66186850 -1.59333851
N  -0.61234079 -1.31598303 -2.67716278
C  -1.39221812 -1.54384775 -0.35739511
H  -2.30737401 -1.27793093  2.96767012
H  -0.77633429 -1.85755189  2.29449605
H  -2.27660618 -2.72105548  1.94690256
H  -4.11423106 -0.24165500  1.37068063
H  -3.99102571 -1.90864022  0.80349560
H  -3.95558518 -0.59810697 -0.34997124
H  -3.57778264  2.09665776  0.34892221
H  -3.54208081  1.09775721 -1.10505580
H  -2.91208643  2.72518652 -1.15994366
H  -1.29975151  3.19180849  1.06747865
H  -0.85479464  3.36595411 -0.63444086
H   0.22266174  2.51209435  0.47492360
H   0.21365493  0.62353292 -1.07943866
H  -0.94054223  1.35154331 -2.20062314
H  -2.42483640 -0.59491506 -2.00611985
H   0.35849004 -1.44051013 -2.38796109
H  -0.61393918 -0.75288020 -3.52785487
H  -0.98751997 -2.23655925 -2.90588631
H  -0.34944790 -1.74613093 -0.09180758
H  -1.86761933 -2.50677749 -0.57215622
N   3.55467166 -0.05085351  0.14020367
C   2.74688829 -0.80096985 -0.86241366
C   4.90158490  0.24313563 -0.42459778
C   2.86133724  1.22539472  0.47987473
C   3.69691393 -0.87478458  1.37424067
H   5.39600404 -0.69741241 -0.66190008
H   2.63135544 -0.18392595 -1.75175202
H   3.26726852 -1.72479000 -1.11008198
H   1.77473731 -1.02176101 -0.42497797
H   2.70397955 -1.07436708  1.77448884
H   4.19516695 -1.80807610  1.11764706
H   4.28926576 -0.31894197  2.09904359
H   2.75585067  1.81623456 -0.42870851
H   1.88155623  0.98565865  0.89481361
H   3.46522653  1.76417109  1.20861922
H   4.77943879  0.84089841 -1.32614124
H   5.47847350  0.79445669  0.31582012

