37
Total Energy                               R     -9.639886202552807E+02
C  -1.72881050  1.21613765 -0.44365791
C  -1.53979476  2.00226382 -1.73230757
C  -3.10669300  1.52504607  0.17020226
N  -1.75280324 -0.26348858 -0.80370920
O  -2.08793799 -0.56443048 -1.89078250
C  -1.44253872 -1.38020526  0.18536293
C  -2.75791032 -1.67177537  0.92973061
C  -1.01381935 -2.59908623 -0.61802213
C  -0.31550589 -0.93188021  1.11816101
C  -0.48336222  0.47730819  1.65774756
N   0.71279736  0.80366774  2.48591872
C  -0.56920179  1.47869325  0.52055707
H  -2.40667016  1.92401698 -2.38779877
H  -0.64570264  1.67732360 -2.26780530
H  -1.41353501  3.04959443 -1.45360898
H  -3.90734048  1.18048889 -0.48601023
H  -3.16603368  2.61167803  0.25197078
H  -3.24017401  1.09952578  1.16174855
H  -3.58014652 -1.81226602  0.22667437
H  -3.02193939 -0.90269510  1.65238306
H  -2.59947018 -2.60677234  1.46965755
H  -1.83658157 -3.01237264 -1.20075571
H  -0.68607168 -3.35482420  0.09750322
H  -0.17709720 -2.36469567 -1.27886042
H   0.63086310 -0.99792708  0.57724591
H  -0.28068693 -1.65683482  1.93483123
H  -1.34022424  0.55072948  2.32626121
H   1.57151519  0.76339335  1.91788932
H   0.81302290  0.14517412  3.25866168
H   0.64047313  1.74074712  2.88257687
H   0.36670238  1.45757263 -0.04381693
H  -0.70736780  2.49178330  0.90472529
B   3.09335804 -0.05513599 -0.42539706
F   2.96953400 -1.40995881 -0.07363836
F   4.34056221  0.18003164 -1.02113604
F   2.05958317  0.30586696 -1.30757722
F   2.99132495  0.73819558  0.75875864

