34
Total Energy                               R     -9.246726277069513E+02
C  -1.28688856  1.34978930  0.27034651
C  -0.01415772  1.88042910 -0.39546667
C  -2.31920792  2.45562973  0.47186562
N  -1.86794176  0.34578406 -0.68634540
O  -2.20125489  0.61901370 -1.77711639
C  -2.00993857 -1.04001032 -0.12014222
C  -3.48781430 -1.12378867  0.31021205
C  -1.67544595 -2.06826804 -1.18501082
C  -1.11632722 -0.97785936  1.12697643
N   0.23370630 -1.57842562  0.91353263
C  -1.03782392  0.50164502  1.52248274
H  -0.26225566  2.43464854 -1.30152278
H   0.67688653  1.07626111 -0.64220884
H   0.46803969  2.55146554  0.31612454
H  -2.50856923  2.98743243 -0.46142043
H  -1.90448399  3.15575570  1.19915766
H  -3.25362556  2.05258615  0.86572504
H  -4.13422201 -0.98905904 -0.55719323
H  -3.73718399 -0.38235202  1.07070163
H  -3.63984833 -2.12158116  0.72348935
H  -2.41526523 -2.03548018 -1.98450787
H  -1.71224067 -3.05764483 -0.72551534
H  -0.68459189 -1.90902865 -1.61449396
H  -1.56715245 -1.56804296  1.92000266
H   0.77157551 -1.15047545  0.14803050
H   0.16327058 -2.57850128  0.72001704
H   0.79345171 -1.46935892  1.76028055
H  -0.07710666  0.74798032  1.97254470
H  -1.81184008  0.69847729  2.26326655
B   3.22543790 -0.00639888 -0.11910886
F   4.41600912 -0.74313899 -0.07563335
F   2.70765903  0.15723617  1.18213959
F   3.44394392  1.24462309 -0.71104762
F   2.25941956 -0.72539888 -0.89078028

