46
Total Energy                               R     -7.144539368116791E+02
C   1.34186472  1.34431340  0.06402451
C   1.75581556  2.32596011 -1.03117083
C   0.07581343  1.83769695  0.76123594
N   1.10482391  0.01036231 -0.54271336
O   0.16211994 -0.19575928 -1.36479084
C   1.83963731 -1.10570075  0.09454880
C   0.97049378 -1.73776335  1.18814999
C   2.22462270 -2.15362827 -0.94013531
C   3.00906653 -0.35533697  0.74915127
N   4.20709759 -0.27118136 -0.14810579
C   2.46841864  1.04075136  1.07096970
H   0.95932009  2.42905888 -1.77207409
H   2.66606672  2.00375597 -1.54300620
H   1.94116293  3.30728618 -0.58842787
H  -0.73175662  1.98671289  0.04174253
H   0.28210372  2.79594004  1.24472844
H  -0.25506720  1.13300675  1.52724810
H   0.06127689 -2.14754277  0.74465385
H   0.68931558 -1.01351756  1.95560369
H   1.51952381 -2.55356112  1.66374790
H   1.33076063 -2.66473460 -1.30026405
H   2.87768967 -2.90043171 -0.48172288
H   2.73463109 -1.72135853 -1.80413684
H   3.35806121 -0.87496534  1.63808780
H   3.99592946  0.15931994 -1.04948463
H   4.60308768 -1.19361120 -0.32985183
H   4.93351544  0.29273096  0.29393919
H   3.25521195  1.79651094  1.04278884
H   2.07176567  1.02352697  2.08631576
N  -3.64896708 -0.13181504  0.01501629
C  -3.30671690  0.43953568 -1.31929105
C  -3.83914570  0.97609441  0.99413606
C  -4.90605539 -0.92476052 -0.09374805
C  -2.54137382 -1.01575946  0.47901522
H  -2.91199283  1.54277613  1.06370227
H  -4.13305091  1.06584647 -1.65132250
H  -2.39997609  1.03290643 -1.22478733
H  -3.14979007 -0.37930121 -2.01907192
H  -2.40182851 -1.81352979 -0.24822999
H  -1.63686757 -0.42013588  0.56128020
H  -2.80898412 -1.43141500  1.44896761
H  -5.70643066 -0.26758995 -0.42923892
H  -4.75242710 -1.72657217 -0.81374119
H  -5.14442387 -1.33852832  0.88453781
H  -4.64678970  1.61631558  0.64341864
H  -4.09232306  0.54719838  1.96222676

