51
Total Energy                               R     -3.696276649606193E+03
C  -1.61374671 -0.00555706  1.86803220
C  -0.42538944  0.26111491  2.79793840
C  -2.73241218 -0.57027322  2.76272513
N  -1.98974061  1.28946562  1.22094616
O  -0.81694577  1.83672184  0.65173773
C  -2.99680249  1.15223594  0.12490584
C  -4.40747925  0.82249690  0.64593065
C  -3.11483578  2.50978285 -0.57575413
C  -2.54903594  0.10739128 -0.92794932
C  -2.20614187 -1.21647168 -0.27427697
Br  -1.53083504 -2.49161017 -1.65689391
C  -1.17162777 -1.06053279  0.82234735
H  -0.70198117  0.98963998  3.56917135
H   0.42412163  0.65470483  2.24533627
H  -0.12706207 -0.66468771  3.30090290
H  -3.20498529  0.23037070  3.33923483
H  -2.30105423 -1.28093431  3.47430927
H  -3.51410024 -1.10629336  2.22729673
H  -4.63378098  1.40989396  1.54057751
H  -4.56970249 -0.22745914  0.88261047
H  -5.14511879  1.08538781 -0.11850574
H  -3.44924458  3.27585849  0.13349044
H  -3.85318804  2.45358231 -1.38268193
H  -2.15726814  2.82149962 -0.98712895
H  -1.66498836  0.49549015 -1.43896686
H  -3.33850937 -0.02628141 -1.67436742
H  -3.09775988 -1.72680581  0.08705693
H  -0.22734888 -0.73449440  0.38328331
H  -0.99302106 -2.01886464  1.32013354
N   1.93724702  2.32207387 -1.04154457
C   3.20738260  2.52022786 -1.78648643
C   2.19477061  2.35871985  0.42858522
C   0.96279249  3.39771286 -1.38351054
C   1.33604765  1.00130490 -1.39165778
H   2.89489150  1.56308739  0.67733595
H   3.62858103  3.48748706 -1.51523135
H   3.89866487  1.72261984 -1.51835340
H   2.99741546  2.48967706 -2.85483485
H   1.13082258  0.98708205 -2.46209631
H   2.04719114  0.21733502 -1.13693142
H   0.41712350  0.91757759 -0.80324539
H   1.40052698  4.36053897 -1.12109642
H   0.76181858  3.35878025 -2.45383014
H   0.05530817  3.20692034 -0.80628328
H   2.62764091  3.32748636  0.67797503
H   1.23383932  2.21189405  0.92829429
B   3.92549474 -1.31558277  0.69202106
F   2.61854906 -1.31221091  1.21712995
F   3.87077757 -1.40089378 -0.71584541
F   4.58737720 -0.12413212  1.06159766
F   4.63605287 -2.42279539  1.20189951

