52
Total Energy                               R     -1.235796525728522E+03
C   0.22132087 -1.44248740  1.30853373
C  -0.13998797 -0.31763169  2.28081480
C   0.13812505 -2.78499247  2.05457214
N  -0.64808338 -1.34077552  0.10875590
O  -1.90367223 -1.91766706  0.25834070
C   0.09887733 -1.79620523 -1.09150788
C  -0.36835595 -0.98908117 -2.30490149
C  -0.04444845 -3.29380999 -1.41005704
C   1.51575005 -1.46893947 -0.68707690
C   1.58528390 -1.26243168  0.68792559
C   2.79731086 -0.96677424  1.29693513
C   3.94731372 -0.88367650  0.51131701
C   3.87886071 -1.09499259 -0.86456444
C   2.65745312 -1.38680198 -1.47298277
H  -1.18076802 -0.42457198  2.60205564
H  -0.02702005  0.65886814  1.80407628
H   0.49243382 -0.34003340  3.17476986
H  -0.89541986 -2.97113498  2.35506402
H   0.76723503 -2.76101544  2.95065622
H   0.46717716 -3.62379055  1.43780643
H  -1.43228973 -1.17005622 -2.48574553
H   0.17934289 -1.27183318 -3.21028088
H  -0.22632680  0.08164769 -2.13648160
H  -1.10224156 -3.54217690 -1.52301292
H   0.36901627 -3.92667965 -0.62198343
H   0.47743632 -3.53660817 -2.34168786
H   2.85495795 -0.79658596  2.36861635
H   4.90133850 -0.64857673  0.97384538
H   4.77970967 -1.02379633 -1.46675062
H   2.60636756 -1.54436974 -2.54701011
N  -3.86042629  0.81514849 -0.07256670
C  -2.47048017  1.34987052 -0.18093225
C  -4.84179715  1.92324085 -0.19834389
C  -4.07562255 -0.19035960 -1.15398536
C  -4.01136791  0.13715678  1.24839411
H  -4.66406984  2.64366040  0.59898635
H  -2.36722355  1.84447058 -1.14626921
H  -2.31734884  2.07072214  0.62157245
H  -1.76852897  0.51511316 -0.09444260
H  -3.27898574 -0.67830588  1.26523654
H  -3.82420749  0.86703232  2.03574550
H  -5.03018802 -0.24237272  1.32747250
H  -3.92934575  0.29894234 -2.11670811
H  -3.34427690 -0.98926690 -0.98681445
H  -5.09658848 -0.56494926 -1.07843673
H  -4.71146749  2.40072139 -1.16871528
H  -5.84826979  1.51529780 -0.11495519
B   1.81917690  2.99476310 -0.07142018
F   2.10252516  2.74928093  1.28848051
F   0.49541922  2.60689829 -0.35846150
F   1.96712986  4.37663571 -0.33535619
F   2.71417019  2.26874655 -0.88181849

