51
Total Energy                               R     -1.122686780611405E+03
C  -0.78089888  2.14130415 -0.69882346
C  -1.82482898  2.00417742 -1.81218105
C  -1.05164092  3.50307796 -0.03418415
N  -0.98210065  0.99917002  0.25223261
O  -1.02584165 -0.19411536 -0.50023502
C   0.09349349  0.85863730  1.28918714
C   0.00198764  1.95061360  2.37038924
C  -0.13458268 -0.47138141  2.01523917
C   1.49684334  0.84527125  0.65430806
C   1.73635634  2.03301856 -0.27555832
C   0.62788776  2.11821868 -1.32389166
H  -2.83938803  2.00859704 -1.39543277
H  -1.68931300  1.07505693 -2.36222669
H  -1.74392872  2.84696967 -2.50762538
H  -1.93982779  3.45274622  0.60360723
H  -1.24117226  4.25421299 -0.80779908
H  -0.22639031  3.87931613  0.56767855
H  -1.04021523  2.13049088  2.65285253
H   0.44216752  2.90387719  2.08221941
H   0.53586638  1.62001364  3.26715184
H  -1.12885961 -0.49722944  2.47771152
H   0.60897184 -0.59518786  2.81026465
H  -0.05909719 -1.30986085  1.32564180
H   1.59513577 -0.07776218  0.07622000
H   2.25704996  0.81330880  1.44393149
H   2.70866725  1.92623434 -0.76941749
H   1.79120250  2.96506811  0.29951490
H   0.69359740  1.24065772 -1.97588500
H   0.76318886  3.00354586 -1.95804031
N  -3.95641490 -1.66591922 -0.11663845
C  -3.96695579 -0.41852472  0.70325545
C  -2.83347303 -2.53304598  0.34696133
C  -5.25078844 -2.38085649  0.01992592
C  -3.71366767 -1.29666236 -1.54206382
H  -1.91873267 -1.94589394  0.21585912
H  -4.13348829 -0.69228684  1.74519071
H  -3.00037002  0.07496192  0.57566788
H  -4.78142485  0.21614094  0.35349684
H  -4.52302937 -0.64714976 -1.87517426
H  -2.74860612 -0.78027095 -1.56439615
H  -3.69761875 -2.20841712 -2.13885689
H  -5.40299135 -2.63573634  1.06798055
H  -6.05214377 -1.72951981 -0.32667457
H  -5.21913201 -3.28693122 -0.58384780
H  -3.00008005 -2.78630023  1.39386059
H  -2.82299433 -3.43917231 -0.25860924
B   4.48944301 -1.35637315 -0.28382054
F   3.81603267 -1.02086414 -1.47625040
F   5.63225266 -2.12754599 -0.59416617
F   4.88881185 -0.17890300  0.38224816
F   3.63442396 -2.10607958  0.55056582

