53
Total Energy                               R     -1.188186694409320E+03
C   0.01164296  2.36018590  0.08883392
C  -0.31096688  3.20974105 -1.13732162
C  -0.11933209  3.17881551  1.37588710
N  -0.88257744  1.18267674  0.14003222
O  -2.13414387  1.31133297  0.28154780
C  -0.20272725 -0.11837272  0.38729500
C  -0.74401544 -1.16515322 -0.58237300
C  -0.45762681 -0.53152540  1.84176457
C   1.23927413  0.29075261  0.13799168
C   1.34564121  1.67287278 -0.00909898
C   2.56361752  2.28780318 -0.23972067
C   3.69896502  1.50016505 -0.33748412
C   3.61540538  0.11505397 -0.20964700
C   4.89135112 -0.64353725 -0.32242751
O   5.85501002 -0.25344481 -0.94674624
O   4.88770258 -1.78813199  0.35850392
C   2.37730679 -0.50493963  0.02542750
C   2.26920486 -2.00309845  0.00659060
O   2.35190821 -2.65260409 -1.01132598
O   2.04030443 -2.53003107  1.20107132
H  -1.33201957  3.59212597 -1.07093748
H  -0.20782643  2.62998162 -2.05723901
H   0.36987885  4.06248111 -1.18368685
H  -1.13172376  3.57964927  1.46401729
H   0.58214204  4.01573018  1.34749318
H   0.09924062  2.57000786  2.25569288
H  -1.82555390 -1.24552724 -0.46629772
H  -0.32171320 -2.14695608 -0.36243707
H  -0.51565260 -0.90611764 -1.61833229
H  -1.53081601 -0.65561153  2.00402936
H  -0.07974980  0.22189920  2.53611015
H   0.03516996 -1.47989779  2.05295256
H   2.63083242  3.36464165 -0.34809124
H   4.66582814  1.95741744 -0.51041407
H   5.72349515 -2.25691853  0.22146475
H   1.94086729 -3.49077595  1.12324693
N  -5.30150844 -0.76147307 -0.26952214
C  -5.80466691  0.61945946 -0.02099715
C  -4.45056114 -1.18926183  0.87865176
C  -6.45620471 -1.69283837 -0.41041910
C  -4.49639769 -0.77698506 -1.52460151
H  -3.62713492 -0.48527650  0.97912931
H  -6.39198477  0.61732738  0.89561483
H  -4.95249992  1.28919880  0.07916829
H  -6.42425013  0.92262253 -0.86323937
H  -5.13781179 -0.47681306 -2.35161195
H  -3.66905013 -0.07809615 -1.41802334
H  -4.12179513 -1.78625759 -1.68644067
H  -7.03870303 -1.67002552  0.50884266
H  -7.06685192 -1.36680684 -1.25070826
H  -6.07579461 -2.69710342 -0.58902730
H  -5.06028122 -1.19018071  1.78067112
H  -4.07335190 -2.19093753  0.67996736

