58
Total Energy                               R     -1.612846667869839E+03
C  -0.38037825  0.37851506 -1.24599433
C  -0.01989323  1.78499181 -1.72718599
C  -1.10791763 -0.41380169 -2.32981380
N  -1.22083007  0.46482532 -0.02618432
O  -2.35225327  1.02735830 -0.03119711
C  -0.58012609 -0.00205515  1.22741122
C  -0.33447380  1.18424371  2.16126045
C  -1.45211462 -1.06208712  1.89573048
C   0.70294722 -0.56472323  0.67392224
C   0.81467404 -0.35189837 -0.69273670
C   1.93105143 -0.78914812 -1.38916241
C   2.94073993 -1.45197907 -0.70037009
C   4.10072628 -1.94537193 -1.51170794
O   4.86763940 -1.22802380 -2.10252548
O   4.12966589 -3.27717371 -1.58602637
C   2.83565344 -1.66032516  0.68332447
C   3.96585050 -2.27883710  1.42598705
O   5.10180694 -2.33193896  1.01799189
O   3.60467033 -2.75795315  2.61932504
C   1.70673667 -1.21471732  1.37061327
H  -0.92524250  2.32995806 -2.00345320
H   0.62944927  1.72345630 -2.60414083
H   0.50131266  2.34029572 -0.94574917
H  -2.03857442  0.08931492 -2.60192555
H  -1.33738382 -1.42667035 -1.99004816
H  -0.48177364 -0.48089684 -3.22282684
H  -1.28540408  1.63966175  2.44750631
H   0.28619172  1.94129351  1.67775561
H   0.17249114  0.84284266  3.06741005
H  -0.96022883 -1.43034571  2.79955914
H  -1.62709793 -1.90629188  1.22509959
H  -2.41403531 -0.63124468  2.18051406
H   2.01464350 -0.63156007 -2.45956314
H   4.89913648 -3.54815903 -2.11128187
H   4.39037424 -3.10697815  3.06737769
H   1.62895031 -1.36216478  2.44130036
N  -5.21754052 -2.11304079 -0.12409720
C  -3.91999172 -1.86540805 -0.81744157
C  -6.23856163 -1.15106309 -0.62835036
C  -5.66991124 -3.50694746 -0.39454730
C  -5.03753518 -1.92404345  1.34361803
H  -5.88904506 -0.13838558 -0.43405835
H  -4.06979256 -1.98894920 -1.88876958
H  -3.59284179 -0.85110125 -0.59422633
H  -3.19022753 -2.58701766 -0.45476390
H  -4.27477203 -2.61699462  1.69429916
H  -4.72749629 -0.89728924  1.52710323
H  -5.98595762 -2.12522878  1.83931057
H  -5.79148844 -3.63216660 -1.46922837
H  -4.91720536 -4.19720938 -0.01749379
H  -6.61894654 -3.67090192  0.11341017
H  -6.36536345 -1.30657409 -1.69838174
H  -7.17723178 -1.33247880 -0.10736446
B   0.38622007  5.12117093  0.15014413
F  -0.81744457  4.50312361  0.54648403
F   1.48259176  4.34275509  0.57729398
F   0.41480336  5.24313207 -1.25523449
F   0.46760088  6.40468084  0.73323373

