58
Total Energy                               R     -1.612947117248581E+03
C  -1.29803105  0.37364440 -1.42160765
C  -2.06733231  1.62959151 -1.83588187
C  -0.98865071 -0.45742266 -2.67812170
N  -2.06687443 -0.33854349 -0.36903119
O  -3.07907234 -1.15261808 -0.85517813
C  -1.13077975 -1.01377685  0.56788923
C  -1.74543068 -1.02233167  1.96879225
C  -0.75633539 -2.45394155  0.18318784
C   0.06725991 -0.10411743  0.46482330
C  -0.02860264  0.68840248 -0.67390959
C   0.97505110  1.58835994 -0.99612204
C   2.08800765  1.69283512 -0.16465669
C   3.12015153  2.71161113 -0.54999959
O   3.04538964  3.88538166 -0.28256162
O   4.07395783  2.19675097 -1.32674083
C   2.18868189  0.89688660  0.98430081
C   3.38056834  1.01635320  1.85684362
O   4.29902351  1.78125049  1.66726408
O   3.34783367  0.19234174  2.90984379
C   1.16589434 -0.00507661  1.29698973
H  -3.03692725  1.34501075 -2.25526099
H  -1.52559505  2.20180017 -2.59610098
H  -2.24480222  2.27991780 -0.97451929
H  -1.92446070 -0.81287311 -3.11437906
H  -0.36366970 -1.32478770 -2.45910561
H  -0.46392486  0.15538657 -3.41813328
H  -2.67968808 -1.59184920  1.96008563
H  -1.96746811 -0.00531504  2.30418879
H  -1.07385789 -1.48776495  2.69767659
H  -0.13495522 -2.90612255  0.96183037
H  -0.20231864 -2.50414265 -0.75556355
H  -1.66908387 -3.04354359  0.07290650
H   0.90311772  2.20821188 -1.88499063
H   4.69929513  2.89934833 -1.56445646
H   4.15808096  0.32057096  3.42504733
H   1.24614899 -0.62282003  2.18350816
N  -5.83503506  0.26215955  0.45639101
C  -5.64850708 -1.15386795  0.89099442
C  -5.81391655  0.31323611 -1.03535875
C  -7.12404921  0.79177658  0.97166019
C  -4.70088557  1.07855220  0.97979249
H  -4.85271803 -0.10960919 -1.34794021
H  -6.48117970 -1.74458627  0.50909956
H  -4.69447643 -1.48700527  0.46809708
H  -5.63993743 -1.18312398  1.98038502
H  -4.71090507  1.02473269  2.06839749
H  -3.76871540  0.67235850  0.57817776
H  -4.84325588  2.11078171  0.65972423
H  -7.93792503  0.18378621  0.57913493
H  -7.11444369  0.74440019  2.05987869
H  -7.23692429  1.82432068  0.64369547
H  -6.64941842 -0.27616634 -1.41288090
H  -5.91953392  1.35177687 -1.34804933
B   3.60300199 -2.29664997 -0.54499803
F   4.53924147 -1.37836727 -0.02703406
F   2.70262585 -1.63164350 -1.40047569
F   4.28737511 -3.29677751 -1.27446957
F   2.89656610 -2.89920034  0.51690196

