58
Total Energy                               R     -1.612657708674164E+03
C  -1.27704323  0.48657717  0.90092279
C  -2.36228703 -0.32600006  1.60891370
C  -0.90486484  1.75977028  1.66240205
N  -1.81525209  0.91133245 -0.44511008
O  -2.73202231  1.63077833 -0.56234364
C  -1.05168486  0.36005983 -1.62751909
C  -2.00377972 -0.52985921 -2.42817796
C  -0.54088310  1.55144938 -2.43841608
C   0.02887032 -0.39840364 -0.91085331
C  -0.09738517 -0.33410570  0.46571649
C   0.80757371 -0.97511940  1.29541642
C   1.85653059 -1.68050344  0.72047651
C   2.85537357 -2.28857498  1.65868959
O   2.57978533 -3.09388343  2.50990505
O   4.07058063 -1.76370285  1.49680600
C   1.98085979 -1.75754729 -0.67482701
C   3.04516207 -2.60887477 -1.27887160
O   3.52325794 -3.57544484 -0.73787797
O   3.39731815 -2.20338791 -2.49930824
C   1.06298113 -1.10876854 -1.49619559
H  -3.24392364  0.28838477  1.79093720
H  -1.94802978 -0.64457367  2.56725947
H  -2.63569059 -1.20870246  1.03077152
H  -1.80001588  2.33483448  1.90419348
H  -0.21139949  2.37683735  1.08782525
H  -0.42029461  1.45594001  2.59175977
H  -2.82526388  0.05823039 -2.83866538
H  -2.39630995 -1.34319367 -1.81738581
H  -1.42766926 -0.95374033 -3.25255638
H   0.08073092  1.15570662 -3.24341128
H   0.06356261  2.21802186 -1.82062060
H  -1.37284908  2.10403386 -2.87765247
H   0.71519713 -0.90899126  2.37386050
H   4.68793720 -2.19138920  2.11126947
H   4.05513810 -2.81858138 -2.85969205
H   1.14766268 -1.17436797 -2.57420284
N   3.51391599  2.87400539  0.22946826
C   4.69308549  2.59599632 -0.63938159
C   2.89316755  1.58565130  0.64994582
C   3.95017877  3.63114483  1.43710575
C   2.51483241  3.67708958 -0.53215084
H   2.55030255  1.06363474 -0.24137535
H   5.41764045  2.01658614 -0.06961051
H   4.35997553  2.03169985 -1.50882875
H   5.12895969  3.54423620 -0.94969354
H   2.97117559  4.62428909 -0.81522383
H   2.22605449  3.11880190 -1.42068690
H   1.64901684  3.85242157  0.10411831
H   4.66754097  3.02438504  1.98725832
H   4.41215109  4.56350751  1.11690165
H   3.07671009  3.83531158  2.05418170
H   3.64009325  0.99053909  1.17186509
H   2.05614944  1.80204673  1.31001383
B  -5.80248511 -0.28015317  0.31057010
F  -4.80368311 -0.21468470 -0.68401956
F  -5.65518652 -1.47522481  1.04531888
F  -5.68080446  0.82449646  1.17917465
F  -7.07346553 -0.25761720 -0.30187325

