28
Total Energy                               R     -6.118719091310018E+02
C   1.51162310 -0.80789013  0.08089155
C   2.29597306 -1.45620700 -1.05816686
C   2.25403527 -0.94530786  1.41201292
N   1.25045359  0.61734048 -0.21744174
O   2.18411810  1.46807599 -0.32477727
C  -0.17421923  1.02036084 -0.09782727
C  -0.33418092  1.91012140  1.13819853
C  -0.61471407  1.74984465 -1.36450612
C  -0.80736800 -0.35014424  0.05227048
C  -2.28119259 -0.54275505  0.09819342
O  -3.03565143  0.34082106  0.52129406
N  -2.74343723 -1.72370883 -0.33889771
C   0.10341935 -1.31502002  0.16359592
H   3.27773075 -0.98660694 -1.15530995
H   1.76317109 -1.36135914 -2.00716422
H   2.44355408 -2.51745979 -0.84535205
H   3.24541213 -0.49181152  1.33859972
H   2.37709445 -2.00296125  1.65636627
H   1.70196090 -0.46156665  2.22096622
H   0.31002207  2.78752625  1.04053149
H  -0.05825437  1.37094886  2.04740194
H  -1.36489633  2.25165192  1.23134822
H  -0.03133816  2.66451547 -1.49368907
H  -1.66787915  2.02694689 -1.28674695
H  -0.48309813  1.11979453 -2.24735777
H  -2.14224699 -2.41970972 -0.74874373
H  -3.73249421 -1.91433682 -0.28774187
H  -0.09584189 -2.37018559  0.31115821

