28
Total Energy                               R     -6.119750262158780E+02
C   1.59651874 -0.57802465  0.19589958
C   2.59661506 -1.28414943 -0.71745426
C   2.15823025 -0.63951022  1.62503392
N   1.31039698  0.85588098 -0.19739796
O   1.60887456  1.05710905 -1.57080910
C  -0.17227672  1.05352946  0.05346235
C  -0.37434508  1.72064968  1.42332640
C  -0.84233694  1.93860919 -0.99491016
C  -0.73276017 -0.36624800  0.04479122
C  -2.17677561 -0.70354969  0.01928855
O  -3.03029757 -0.00011106  0.57972092
N  -2.51530328 -1.82129468 -0.64541868
C   0.25235059 -1.25418721  0.13775701
H   3.55069092 -0.75150422 -0.74431041
H   2.22977870 -1.38518142 -1.73865005
H   2.78336926 -2.28777863 -0.32303054
H   3.12919363 -0.13651143  1.66624584
H   2.30378243 -1.68026822  1.93151929
H   1.50042768 -0.16995480  2.35612571
H   0.12119496  2.69604423  1.43384190
H   0.02966066  1.12617597  2.24286619
H  -1.43664319  1.88008081  1.62370560
H  -0.34956467  2.91229229 -1.05334415
H  -1.88300358  2.10980826 -0.70662385
H  -0.83260095  1.48970081 -1.98784980
H  -1.83161262 -2.36887651 -1.14147350
H  -3.47775595 -2.12225259 -0.65567459
H   0.13749017 -2.33257743  0.20190661

