33
Total Energy                               R     -7.851853343924699E+02
C  -2.21755836 -0.40547618 -0.00000000
C  -3.48453907 -1.18154867  0.00000000
C  -2.21616205  0.99291370  0.00000000
N   2.37354546  0.28532288 -0.00000000
O  -4.57807443 -0.41760395  0.00000000
C  -1.01914216  1.69536164  0.00000000
C   1.90718372 -1.75839919 -1.27120089
C   1.90718372  2.32980807 -1.27158154
C   0.16878844  0.98140197 -0.00000000
C   0.16901671 -0.40591967  0.00000000
C  -1.01701246 -1.11516470  0.00000000
C   1.55529429 -0.98418489  0.00000000
C   1.90718372 -1.75839919  1.27120089
O  -3.53745382 -2.39462115  0.00000000
O   3.54522109  0.28539232  0.00000000
C   1.90718372  2.32980807  1.27158154
C   1.55583451  1.55574680  0.00000000
H  -5.36366581 -0.98213738  0.00000000
H   1.28031241 -2.65141045  1.28970870
H  -1.01793938 -2.19915165 -0.00000000
H  -3.15226901  1.53647969  0.00000000
H  -1.01563881  2.77951038  0.00000000
H   1.28324412  3.22477641  1.28873342
H   1.70310744 -1.16453591 -2.16347019
H   1.28031241 -2.65141045 -1.28970870
H   2.95526424 -2.06036534 -1.25533661
H   1.70059607  1.73687371 -2.16386480
H   2.95628757  2.62816876 -1.25640659
H   1.28324412  3.22477641 -1.28873342
H   1.70310744 -1.16453591  2.16347019
H   1.70059607  1.73687371  2.16386480
H   2.95526424 -2.06036534  1.25533661
H   2.95628757  2.62816876  1.25640659

