49
Total Energy                               R     -1.035905161979031E+03
C   1.81582393 -0.76552673 -1.15555301
C   0.81269143 -1.31589231 -2.17582531
C   3.09787431 -1.59681045 -1.23963572
N   2.18803997  0.66626555 -1.33474539
O   2.15746445  1.08257560 -2.67662038
C   1.37409453  1.51497399 -0.43801537
C   2.08570490  2.84941030 -0.23885342
C  -0.06414151  1.78385757 -0.90368637
C   1.41449558  0.62188290  0.83011857
C   0.42625886  1.01015048  1.90045173
O  -0.62688199  0.45017266  2.11210271
O   0.75597802  2.06151017  2.66529319
C   1.16065951 -0.77169660  0.26527906
C   1.57628443 -1.93175759  1.12505872
O   1.10082341 -3.04518947  1.01736413
O   2.52390110 -1.65085965  2.02088303
H   1.26447932 -1.40300222 -3.16606881
H  -0.07589963 -0.68843762 -2.26137764
H   0.49188961 -2.31467553 -1.86349527
H   3.57910236 -1.41623249 -2.20482296
H   2.89444959 -2.66989086 -1.16667308
H   3.80600842 -1.32080576 -0.45387295
H   2.19304987  3.35589356 -1.20167757
H   3.08317735  2.70528833  0.18616698
H   1.51761006  3.51554669  0.41702420
H  -0.05275216  2.23311666 -1.89868717
H  -0.56235828  2.48595623 -0.22848598
H  -0.67425018  0.88236803 -0.94894053
H   2.41978784  0.69484312  1.25232121
H   1.62363451  2.41818358  2.43651873
H   0.08850197 -0.90364174  0.12899871
H   2.74537902 -2.45225575  2.51680182
N  -3.93384604 -0.21761357 -0.26020125
C  -4.45121046 -0.69895998  1.05179005
C  -2.77619890 -1.06111415 -0.67227971
C  -5.00928312 -0.31246310 -1.28699527
C  -3.49709364  1.20196142 -0.12791885
H  -2.01434749 -0.99887282  0.10148575
H  -4.76372707 -1.73628828  0.94458283
H  -3.65456406 -0.62063163  1.78974452
H  -5.29743314 -0.07905357  1.34275721
H  -4.35506494  1.80148717  0.17220985
H  -2.71571838  1.25715253  0.62753354
H  -3.11754316  1.54269088 -1.08932896
H  -5.32136402 -1.35188941 -1.37149866
H  -5.84722080  0.30791034 -0.97348004
H  -4.61516215  0.04043677 -2.23841402
H  -3.11522766 -2.08988143 -0.78129042
H  -2.38983341 -0.68964765 -1.61919702

