46
Total Energy                               R     -6.980403908963565E+02
C   1.52901919  1.25993633  0.18205177
C   0.56654073  2.43629892 -0.01353721
C   2.23585455  1.51379919  1.52610361
N   0.70654064  0.00568703  0.19919195
O  -0.12202764  0.01289626 -0.94370269
C   1.50685352 -1.26231251  0.18262630
C   2.20332888 -1.52791328  1.52905477
C   0.52679030 -2.42360656 -0.01598205
C   2.53197473 -1.26654362 -0.96798388
C   3.41232560 -0.01718417 -0.97842067
C   2.55274642  1.24668372 -0.96974709
H  -0.17558130  2.46705463  0.79355144
H   0.03472782  2.35170048 -0.95916032
H   1.12051654  3.38137246  0.00319798
H   1.57568558  1.27029291  2.36441043
H   2.49399083  2.57465099  1.60576694
H   3.16430729  0.95981785  1.65593253
H   1.52977808 -1.30653743  2.36297711
H   3.12123728 -0.96275587  1.67978465
H   2.47465869 -2.58646980  1.59474538
H  -0.22086063 -2.44127677  0.78613536
H   1.06599950 -3.37710291  0.00654216
H   0.00264607 -2.33395344 -0.96539882
H   1.97686928 -1.31522101 -1.91053546
H   3.14937029 -2.17168501 -0.90849788
H   4.05487200 -0.02303545 -1.86650289
H   4.09093223 -0.02261532 -0.11741140
H   1.99897587  1.30351120 -1.91259118
H   3.18502356  2.14158330 -0.91088472
N  -3.29379237  0.00438077  0.00194637
C  -2.46018385 -0.00843977  1.24033955
C  -2.95369326 -1.19767934 -0.81470700
C  -4.73622016 -0.00174050  0.35629529
C  -2.95672126  1.22586862 -0.78646682
H  -1.88499860 -1.12228654 -1.04024254
H  -2.70095369 -0.90750401  1.80785445
H  -1.40947077 -0.00250102  0.94010393
H  -2.70488200  0.87600361  1.82885043
H  -3.18443809  2.10307361 -0.18104232
H  -1.88762654  1.15911114 -1.01282629
H  -3.56200712  1.23105995 -1.69274685
H  -4.95406582 -0.90147267  0.93034675
H  -4.95652866  0.88369345  0.95126301
H  -5.32482515  0.00809001 -0.56010308
H  -3.17796663 -2.08926036 -0.22944377
H  -3.56009515 -1.18398488 -1.72018129

