64
Total Energy                               R     -1.766563301536360E+03
C  -0.06920277  0.91323039 -0.39988494
C  -0.88145310  2.01877305 -1.09771323
C  -0.85719900  0.37030815  0.81892330
N   0.17474867 -0.10577515 -1.46232634
O  -1.05842040 -0.63007915 -1.90118261
C   1.08776102 -1.22279157 -1.12411223
C   0.57981989 -2.22083796 -0.05762222
C   1.31159079 -2.00342356 -2.42948989
C   2.40308442 -0.63964987 -0.63591060
C   2.45498325  0.66998588 -0.07170562
C   1.27612722  1.47053767  0.07427714
C   1.41871023  2.71555912  0.66150965
C   0.31913611  3.69071813  0.94726759
O   0.22928547  4.77524200  0.41099600
O  -0.48456210  3.30771971  1.93638093
C   2.68091597  3.21585716  1.07350205
C   3.80292290  2.45887141  0.94353155
C   3.71267776  1.16401491  0.38254657
C   4.87034578  0.36357652  0.28764907
C   4.79012218 -0.90217741 -0.22943719
C   6.02462936 -1.72122833 -0.30438183
O   7.11341370 -1.36299919  0.10076696
O   5.83661281 -2.91560151 -0.87278525
C   3.54863736 -1.39524706 -0.68752984
H  -1.70462442  1.56288314 -1.64121750
H  -0.26379311  2.57127805 -1.81105768
H  -1.32557394  2.72369126 -0.39643917
H  -1.51287953  1.13448513  1.23723758
H  -0.19731702  0.03206400  1.61940715
H  -1.47525853 -0.47047246  0.50970808
H  -0.44464715 -2.52860505 -0.27622041
H   0.61228052 -1.80710922  0.94982142
H   1.21100194 -3.11397550 -0.06520884
H   0.36462463 -2.40817174 -2.78480599
H   1.99027283 -2.84560108 -2.28848296
H   1.72506275 -1.35436091 -3.20665087
H  -1.14835553  3.99377116  2.10027228
H   2.73745758  4.20776266  1.50881151
H   4.76755129  2.83073023  1.27214289
H   5.81646560  0.76237429  0.63651513
H   6.67474129 -3.39780801 -0.89153536
H   3.51265320 -2.40010507 -1.08406543
N  -5.06923669  0.34799327 -1.54792856
C  -4.25988297  0.65031229 -0.33301388
C  -4.40891849  0.94194500 -2.74497194
C  -5.16415538 -1.12931191 -1.72209755
C  -6.43418887  0.92321964 -1.39312485
H  -4.32349328  2.01744342 -2.59929617
H  -3.27670478  0.20680812 -0.46190111
H  -4.17777968  1.73097654 -0.22756001
H  -4.75876915  0.22234624  0.53387028
H  -6.90231364  0.48266955 -0.51474545
H  -6.34607049  2.00135891 -1.26968787
H  -7.01574738  0.69313008 -2.28441304
H  -4.15805697 -1.53099892 -1.82991802
H  -5.64865599 -1.55562573 -0.84572713
H  -5.75116767 -1.33739024 -2.61523356
H  -3.42187934  0.49621996 -2.85561818
H  -5.01853868  0.72789825 -3.62131618
B  -3.13503412 -2.25999734  2.31821813
F  -3.96262965 -3.15794112  3.02824232
F  -3.51896941 -0.93621122  2.61853006
F  -1.79252614 -2.46048133  2.70014096
F  -3.27402104 -2.49324545  0.93545701

