36
Total Energy                               R     -9.737556109921875E+02
C   0.43574337 -1.40276604  0.00412094
C  -2.48603975  2.04616463  1.26974339
C   2.88904568 -1.50939686  0.09824847
N  -2.95503812 -0.00000191  0.00000126
O   3.74050674 -1.03308444  1.00254738
C   1.63624945  0.70162480 -0.00921182
C   0.43574078  1.40276811 -0.00412315
C   2.88904312  1.50940265 -0.09825116
C   1.63625054 -0.70162044  0.00920910
C  -0.75179300 -0.69208982 -0.00043577
C  -2.48598141 -2.04293335  1.27439347
C  -2.13709798 -1.27057515  0.00135621
C  -2.48603708 -2.04616426 -1.26974485
O  -4.12625069 -0.00000300  0.00000314
O   3.08620877 -2.51630313 -0.54420771
C  -2.13710032  1.27057279 -0.00135606
C  -2.48598647  2.04292678 -1.27439494
O   3.08618998  2.51632939  0.54417820
O   3.74052571  1.03306443 -1.00251615
C  -0.75179428  0.69208996  0.00043489
H  -1.86041673 -2.93678862  1.29254242
H  -2.28024223 -1.44795160  2.16545793
H  -2.28159162  1.45290138  2.16225568
H   4.54804031 -1.56742334  1.01023357
H   0.43508986 -2.48666526  0.02602250
H  -1.85908305 -2.93911106 -1.28637465
H  -1.85908634  2.93911192  1.28637162
H  -3.53412022  2.34772474  1.25335968
H   0.43508553  2.48666729 -0.02602517
H  -1.86042446  2.93678386 -1.29254569
H  -2.28158941 -1.45289923 -2.16225606
H   4.54805781  1.56740535 -1.01020032
H  -3.53449169 -2.34308041  1.25927281
H  -3.53411744 -2.34772487 -1.25336144
H  -3.53449775  2.34307049 -1.25927454
H  -2.28024564  1.44794386 -2.16545824

