33
Total Energy                               R     -7.853704499504377E+02
C  -0.28072521 -1.27132747 -0.01216280
C  -0.18984750 -2.02961123  1.31699361
C   1.91262222  1.92549116  0.10287336
N  -1.71271023 -0.94286605 -0.25719040
O   2.86730409 -1.42108693  0.68049360
C   1.63672343  0.55473906  0.06848327
C   0.23720656 -2.11008508 -1.17796184
C   2.79562651 -0.38073330  0.06306460
C   0.30280596  0.12949816  0.05736530
C  -0.70982200  1.08611693  0.05305649
C  -2.08121040  0.47215172 -0.04156511
C  -2.87407920  0.61735924  1.25984243
O  -2.59160503 -1.85108520 -0.35081419
O   3.80072534  0.06629810 -0.69754850
C  -0.43474281  2.44392241  0.10910961
C  -2.88477014  0.98958170 -1.23192622
C   0.88891364  2.86230642  0.14363842
H  -0.78840633 -2.94175692  1.25701147
H  -3.82023517  0.43349148 -1.32724972
H  -3.82157079  0.07816964  1.18732430
H   0.84306197 -2.30219518  1.52523061
H  -2.30974829  0.22948946  2.11062904
H  -0.56539785 -1.41776864  2.14047857
H   1.27010978 -2.41242700 -1.00558027
H   0.18522434 -1.55212264 -2.11564665
H  -0.36432331 -3.01673004 -1.27438066
H   4.54925569 -0.54386046 -0.63240076
H   2.94291007  2.25989639  0.11366866
H   1.12775576  3.91881970  0.18784319
H  -3.09137239  1.67314554  1.43795924
H  -1.24335978  3.16765425  0.11553879
H  -3.12983444  2.04328045 -1.08076929
H  -2.31869936  0.89351012 -2.16123769

