50
Total Energy                               R     -1.250876846971643E+03
C  -0.08192171 -1.17077826 -0.34307409
C   0.89952271 -2.16129431  0.31013434
C  -0.95658590 -1.93850394 -1.33792442
N  -0.93424641 -0.39137203  0.58590383
O  -1.37827552 -1.11313619  1.70788762
C  -0.25700384  0.89273083  0.91742076
C  -1.33084397  1.96507193  1.12281959
C   0.64478323  0.86749065  2.16501141
C   0.60620890  1.07208245 -0.32057461
C   1.30273201  2.32892301 -0.69684455
O   0.78320334  3.44681045 -0.55730885
N   2.53035192  2.18158392 -1.21837243
C   0.69488756 -0.06826504 -1.00162351
H   0.35692856 -2.98016419  0.78980245
H   1.53514846 -1.68611547  1.05773531
H   1.54930555 -2.59432136 -0.45596408
H  -1.60361706 -2.64315750 -0.80676068
H  -0.34041772 -2.51216635 -2.03766491
H  -1.59000852 -1.26112727 -1.91519063
H  -2.04901588  1.60602579  1.86629157
H  -1.87286354  2.17676435  0.19888961
H  -0.90560509  2.89982036  1.49534830
H   0.04698082  0.75629014  3.07332700
H   1.19340131  1.81183723  2.24127232
H   1.37475755  0.05837304  2.13445547
H   2.99912897  1.28573252 -1.23412098
H   3.04016518  3.00022894 -1.51398953
H   1.26400743 -0.22668347 -1.91170845
N  -4.86439787 -0.25428455 -0.28041039
C  -4.85932318  0.31483235  1.09689488
C  -6.19693290 -0.03529711 -0.90711910
C  -3.80891153  0.41556792 -1.09403563
C  -4.57926957 -1.71529675 -0.21018646
H  -6.95639290 -0.52693174 -0.30149013
H  -5.04379192  1.38590420  1.03371434
H  -5.64388879 -0.16785092  1.67747124
H  -3.88691132  0.12331081  1.54730228
H  -3.61917439 -1.85843702  0.28246536
H  -5.37059792 -2.19815076  0.36110665
H  -4.54871434 -2.11424110 -1.22267575
H  -4.02332583  1.48298432 -1.12472447
H  -2.84062919  0.22701505 -0.62370937
H  -3.83546969  0.00120885 -2.10097256
H  -6.38934655  1.03539000 -0.95402410
H  -6.18532080 -0.45817507 -1.91019317
B   4.59993650 -0.75067046 -0.00832084
F   4.47413022 -2.13799244  0.18393034
F   3.93918623 -0.06014360  1.02359590
F   5.96210813 -0.39329616 -0.02322714
F   4.01570411 -0.39684325 -1.25366107

