50
Total Energy                               R     -1.250574337017480E+03
C   0.02429046 -0.75776997  0.76422255
C  -0.48584181 -2.13702963  0.35690527
C   1.18110166 -0.83976257  1.76709292
N   0.53905017 -0.05069470 -0.46100460
O   1.33473779 -0.51252693 -1.18696281
C  -0.04884386  1.32526706 -0.64803806
C   1.10052388  2.31267179 -0.40335744
C  -0.60359383  1.42503101 -2.06581201
C  -1.10096159  1.29640625  0.43543691
C  -2.05792978  2.42422330  0.61489207
O  -1.70981625  3.59192813  0.41465734
N  -3.28623310  2.07898324  1.01198120
C  -1.04820241  0.19820324  1.17977983
H   0.33942586 -2.75545335  0.00102544
H  -1.25465486 -2.06371322 -0.41221719
H  -0.91845580 -2.60118160  1.24426206
H   1.97388067 -1.48002694  1.37837483
H   0.78249852 -1.28382342  2.68053550
H   1.57700725  0.15005013  1.99902111
H   1.88466544  2.15883044 -1.14617056
H   1.51138188  2.20308713  0.60116396
H   0.69875260  3.31861291 -0.51550921
H   0.19856423  1.31431922 -2.79655019
H  -1.04398577  2.41661198 -2.17912431
H  -1.37401294  0.67325036 -2.24106364
H  -3.58553672  1.11184534  1.04515166
H  -3.97311840  2.80339470  1.15980486
H  -1.68203536 -0.03615826  2.02438765
N   5.14778813 -0.45978354 -0.01955454
C   4.49003256 -1.61133202 -0.70106853
C   6.44618908 -0.16320578 -0.68838796
C   4.26217318  0.73626675 -0.09975672
C   5.38965592 -0.80069216  1.41138913
H   7.07882673 -1.04713545 -0.63171503
H   4.32068358 -1.34943218 -1.74392814
H   5.14628839 -2.47719412 -0.63194284
H   3.54376076 -1.81734267 -0.20575431
H   4.43390486 -1.02241401  1.88393482
H   6.04281793 -1.67044008  1.45825786
H   5.86137401  0.05067989  1.89870360
H   4.05881711  0.95066567 -1.14704989
H   3.34014434  0.51894938  0.43215689
H   4.76917572  1.57959701  0.36609849
H   6.25217011  0.09377969 -1.72835739
H   6.92076689  0.67251650 -0.17740188
B  -4.29270505 -1.38178572 -0.29344609
F  -3.93632257 -2.73716291 -0.17960286
F  -3.46604736 -0.74618172 -1.23816424
F  -5.63817141 -1.27184048 -0.68977059
F  -4.12998654 -0.75229874  0.97085300

