38
Total Energy                               R     -8.055788253370224E+02
C  -0.17022135 -1.17021138 -0.02945890
C   1.99398635  1.70416756 -1.61869320
C  -1.05663571 -2.19379290 -0.25914436
N   2.05773641 -0.38207320 -0.35087339
O   2.97262883 -0.69325177 -1.02688262
C   1.71299410  1.08605046 -0.24385313
C   1.81057549 -2.79630471 -0.03227037
C   2.69346725  1.65934274  0.80015219
C   1.26914826 -1.44147153  0.37823174
C   0.24696598  1.25809789  0.11631114
C  -0.65365123  0.16333428  0.03712821
C  -2.43177351 -1.94822313 -0.36978579
C  -2.95237446 -0.67825018 -0.20234391
C  -2.50562494  1.73884764  0.24657749
N  -4.31788937 -0.47795136 -0.19699329
C  -2.05195944  0.41680111  0.02603542
C  -1.61391902  2.76292284  0.43262330
C  -0.23086396  2.52663772  0.33637978
C   1.46696454 -1.21629966  1.88726240
H   3.04509849  1.60595752 -1.88793493
H   1.75066717  2.76455886 -1.56253924
H   1.37114993  1.24168706 -2.38683563
H   1.68057813 -2.98302563 -1.09943267
H  -3.10598966 -2.77859330 -0.55313179
H  -0.71394439 -3.21924398 -0.32672952
H   2.86842539 -2.87679600  0.21993072
H   1.27849376 -3.56408891  0.52822948
H   2.52566484 -1.24453839  2.15226668
H   3.71943905  1.41791892  0.51841614
H   2.49219811  1.29806762  1.80645342
H   2.58356903  2.74367481  0.78917323
H  -4.85590124 -1.24780495 -0.56771933
H  -4.65472721  0.41101093 -0.53469622
H  -3.56655735  1.95727748  0.28539820
H  -1.97048470  3.76992510  0.61678237
H   0.44938083  3.36901419  0.39612976
H   0.95737592 -2.04224207  2.38617271
H   1.02313392 -0.28646568  2.23928211

