55
Total Energy                               R     -1.020124227300132E+03
C  -0.04641572 -1.01162117  1.14346140
C   0.81223616 -2.24750557  0.83958591
C  -0.31021999 -0.98637796  2.66618660
N   0.71854738  0.14914185  0.63140288
O   1.96434663  0.23181616  1.26270314
C   0.04920401  1.47120971  0.66450978
C  -0.00860517  2.12306687  2.06425210
C   0.90061619  2.37769594 -0.24369524
C  -1.36118037  1.37216491  0.09662599
C  -2.00720424  0.10952190 -0.04850494
C  -1.37942220 -1.08644784  0.41229991
C  -2.05586245 -2.27082220  0.25466067
C  -3.31955212 -2.34182099 -0.36395341
C  -3.95610529 -1.20922786 -0.81113699
N  -5.24242560 -1.27317074 -1.36105799
C  -3.31296238  0.05810981 -0.62925232
C  -3.95933386  1.26476530 -0.99282885
C  -3.33762145  2.46951376 -0.79799320
C  -2.03774565  2.51714368 -0.26279915
H   1.75943380 -2.15914538  1.36923635
H   1.02230397 -2.32465974 -0.23191302
H   0.33013584 -3.17130098  1.16597746
H   0.60060397 -0.66928452  3.18058563
H  -0.58533083 -1.98396622  3.02365753
H  -1.12313087 -0.30974020  2.93589778
H   0.95450782  1.96728868  2.55473541
H  -0.79658352  1.70406665  2.69141382
H  -0.19401292  3.19811523  1.97906092
H   1.92272113  2.39610463  0.13446096
H   0.52819419  3.40410496 -0.26917436
H   0.91777564  1.99115221 -1.26718743
H  -1.62405436 -3.19982992  0.60890005
H  -3.79887129 -3.30954568 -0.48652326
H  -5.52023548 -2.21666601 -1.59627498
H  -5.39747240 -0.66726161 -2.15536857
H  -4.96229339  1.24626122 -1.40419565
H  -3.84392333  3.39352892 -1.05958588
H  -1.57094048  3.48719409 -0.13197434
N   4.41317615 -0.29062561 -0.93765465
C   3.10912964 -0.29761715 -1.66519264
C   5.53058613 -0.51767965 -1.89007852
C   4.57516338  1.02582591 -0.25399292
C   4.38995858 -1.36420854  0.09810280
H   5.39051943 -1.48436541 -2.37209062
H   3.12332633  0.50416932 -2.40333356
H   3.00047030 -1.25930041 -2.16640318
H   2.31436301 -0.14456890 -0.93219238
H   3.55872244 -1.12890273  0.76806996
H   4.24114957 -2.32288920 -0.39823260
H   5.34441810 -1.35932503  0.62409571
H   4.57838790  1.81118454 -1.00944878
H   3.72520640  1.12979132  0.42607870
H   5.52226122  1.02227105  0.28517378
H   5.52408207  0.27656467 -2.63556391
H   6.47042804 -0.50712658 -1.33988012

