46
Total Energy                               R     -8.472154709748572E+02
C  -0.84905219  1.76798317 -0.28012263
C  -1.00459721  3.07863195  0.48069573
C   0.17244504  1.91152456 -1.40905995
N  -0.40717121  0.69515605  0.64514731
O   0.54253747  0.86345856  1.46893965
C  -1.28301846 -0.49840568  0.70242598
C  -0.44977139 -1.77063200  0.73906985
C  -2.16973958 -0.39697354  1.94702494
C  -2.06336200 -0.30628666 -0.62487994
C  -3.38434282 -1.02667857 -0.64118405
O  -4.46508616 -0.51879381 -0.43364625
O  -3.24558125 -2.32839938 -0.90824362
C  -2.18754422  1.20984750 -0.77918982
H  -0.03840160  3.44603056  0.83412912
H  -1.67067033  2.95643891  1.33854086
H  -1.43338035  3.83277428 -0.18399585
H   1.16759874  2.12072081 -1.00792555
H  -0.11788376  2.74174312 -2.05771805
H   0.22492639  1.00415971 -2.01614793
H   0.17863467 -1.79087484  1.63186504
H   0.18815886 -1.85600923 -0.14276734
H  -1.10953490 -2.63969353  0.77251451
H  -1.54134607 -0.35691489  2.83961108
H  -2.81381383 -1.27639785  2.02776321
H  -2.79884187  0.49576328  1.92779337
H  -1.45229342 -0.72073903 -1.43077345
H  -4.11008850 -2.76302518 -0.87798486
H  -3.00505776  1.58495866 -0.16032255
H  -2.38425653  1.49902360 -1.81211217
N   3.72758188 -0.49097525 -0.18710107
C   3.37143900 -1.31085127  1.00600803
C   5.03689957 -0.94610550 -0.73241183
C   2.67279354 -0.64808647 -1.22754218
C   3.82227703  0.94384266  0.20748071
H   5.79869514 -0.81953067  0.03479562
H   3.27457578 -2.35095318  0.69947494
H   4.16292113 -1.20945193  1.74666984
H   2.42944714 -0.94637838  1.41034180
H   2.86010954  1.25868529  0.60798068
H   4.59808599  1.04608780  0.96483920
H   4.07698683  1.53116433 -0.67320401
H   2.62349888 -1.69543525 -1.52043502
H   1.72427088 -0.33029135 -0.80484502
H   2.92983976 -0.02781281 -2.08447832
H   4.95403943 -1.99570521 -1.00945919
H   5.27938671 -0.34458633 -1.60676105

