47
Total Energy                               R     -3.384628216417832E+03
C   0.11892143 -0.49179549 -1.24052523
C   0.64146528 -1.82649138 -0.71090816
C  -0.09428678 -0.54387647 -2.75399276
N   1.07012638  0.59655314 -0.90392069
O   2.24201834  0.62870838 -1.37838305
C   0.50454113  1.73038259 -0.13133353
C   1.29195573  1.92651700  1.16341287
C   0.52288996  2.99951129 -0.98457696
C  -0.89246718  1.21839337  0.10807955
C  -1.10517003 -0.00985162 -0.50413293
C  -2.32871235 -0.65699217 -0.40704070
C  -3.33196446 -0.03358458  0.32391209
Br  -5.02779864 -0.89480653  0.48308008
C  -3.13936742  1.19714821  0.94436152
C  -1.90463657  1.82893648  0.83394971
H   1.60618109 -2.06282506 -1.16700628
H  -0.06106499 -2.62466820 -0.96307744
H   0.76089771 -1.80040586  0.37464605
H   0.84120799 -0.79821709 -3.25787618
H  -0.44921207  0.41752871 -3.13321762
H  -0.83599037 -1.30904852 -2.99621650
H   2.33349045  2.17105930  0.94138246
H   1.26496068  1.02623123  1.78156818
H   0.86140886  2.75242151  1.73510096
H   1.55192046  3.28262259 -1.21857162
H   0.05566684  3.82051415 -0.43507619
H  -0.02333676  2.85126470 -1.91938982
H  -2.49346276 -1.61587069 -0.88594503
H  -3.93882277  1.66247708  1.50903091
H  -1.74608169  2.78844214  1.31559597
N   4.86489676 -0.75554220  0.67309209
C   3.59059981 -1.00893793  1.40385978
C   6.00636143 -1.29938116  1.46116233
C   4.81151056 -1.42588589 -0.65840546
C   5.04299541  0.71364597  0.48259818
H   6.03139558 -0.80151060  2.42905964
H   3.46537104 -2.08371504  1.52567869
H   3.64215120 -0.52245909  2.37634693
H   2.77146415 -0.59775758  0.82107107
H   4.20775241  1.08941658 -0.10618395
H   5.06484203  1.19060545  1.46112155
H   5.98305498  0.88356719 -0.04025181
H   4.68519267 -2.49624925 -0.50379905
H   3.96903553 -1.02033757 -1.21661909
H   5.74515622 -1.22917119 -1.18339971
H   5.86108593 -2.37040354  1.59230536
H   6.92956330 -1.10845569  0.91626255

