30
Total Energy                               R     -6.129160975596643E+02
C  -1.45309127 -0.75483185 -0.15564236
C  -1.31466323 -1.57413927  1.14214526
C  -2.86050684 -0.83735215 -0.71781093
N  -1.15684553  0.64530631  0.26910130
O  -1.94256248  1.33730674  0.80060546
C   0.25313171  1.10413866 -0.02109248
C   0.12037302  2.35256476 -0.89839775
C   0.89059945  1.44372547  1.32477826
C   0.84605832 -0.08943694 -0.81816581
C   1.99331459 -0.80738932 -0.10751485
O   1.84361234 -1.86221941  0.50906130
N   3.18499085 -0.21042376 -0.23276188
C  -0.33961504 -1.00665962 -1.16989167
H  -2.08661320 -1.27710846  1.85364624
H  -0.33080682 -1.46097823  1.59591853
H  -1.45476054 -2.62123782  0.86954623
H  -3.60799226 -0.61403836  0.04419125
H  -3.01542843 -1.86047779 -1.06476510
H  -2.98518440 -0.16001076 -1.56477940
H  -0.41110289  3.14340002 -0.36754510
H  -0.39434511  2.12581087 -1.83419845
H   1.13136525  2.69293554 -1.12690379
H   0.30743201  2.21699978  1.82670166
H   1.89038847  1.83627090  1.13935442
H   0.96395018  0.56892624  1.97312106
H   1.25852549  0.31738291 -1.74145939
H   3.28724084  0.66580929 -0.72028227
H   3.98723750 -0.58993798  0.24691646
H  -0.05621355 -2.05740700 -1.16473843
H  -0.70271289 -0.75493403 -2.16688005

