54
Total Energy                               R     -1.310986711165732E+03
C   0.28926084 -0.63300091 -0.77967563
C   0.90570874  0.44503011 -1.65779833
C   1.23099996 -1.85034680 -0.70625516
N   0.18638875 -0.07526290  0.63196266
O   0.89725570  0.81247659  0.93503145
C  -0.74047798 -0.64736985  1.69240589
C  -0.00032207 -1.84978725  2.30779273
C  -0.95003545  0.42288491  2.75306399
C  -2.07314127 -1.03892624  1.04216951
C  -1.92457442 -1.81308040 -0.27045119
C  -3.28451000 -2.15162649 -0.83435447
O  -3.68440707 -1.84196973 -1.93489623
O  -4.02273654 -2.86157526  0.02332566
C  -1.11459207 -1.00199594 -1.27021221
H   1.94045833  0.64937778 -1.38729356
H   0.32885952  1.36944760 -1.61596283
H   0.88838688  0.07183106 -2.68295524
H   2.13429740 -1.62492563 -0.13792048
H   1.51978935 -2.07173231 -1.73488856
H   0.75585906 -2.73584414 -0.29111673
H   1.01625782 -1.57594738  2.59498248
H   0.02866850 -2.71952587  1.65606503
H  -0.55390594 -2.11790275  3.20913800
H  -0.03638051  0.62536100  3.31225604
H  -1.69860465  0.04055547  3.44905772
H  -1.32474352  1.34846940  2.31568665
H  -2.65512625 -0.13277117  0.86381183
H  -2.60667954 -1.62981597  1.78757082
H  -1.44605480 -2.77780276 -0.07285793
H  -4.88549430 -3.05322176 -0.37132611
H  -1.65191196 -0.08388539 -1.51403338
H  -0.97297512 -1.55755326 -2.19921262
N   5.23678873  0.21710936 -0.20880064
C   4.72172187 -0.11137597 -1.56857625
C   6.29929795  1.25673563 -0.31908686
C   4.12446734  0.73295357  0.63850857
C   5.80304408 -1.01249825  0.41512482
H   7.10249667  0.87128477 -0.94463452
H   4.32305676  0.79507157 -2.02027004
H   5.54431241 -0.49845687 -2.16764473
H   3.93930728 -0.86202003 -1.47571411
H   5.01806936 -1.76477427  0.47454906
H   6.62332961 -1.37234050 -0.20355063
H   6.16373550 -0.76505902  1.41197209
H   3.69349424  1.60899037  0.15804816
H   3.37678776 -0.05008357  0.74287121
H   4.52546723  0.99778195  1.61545499
H   5.86812721  2.14945284 -0.76844185
H   6.67401526  1.48096752  0.67798689
B  -2.85409650  2.46595844 -0.20800919
F  -3.53239296  1.52705101 -1.00960383
F  -2.92367234  3.73895955 -0.80524373
F  -3.44297131  2.50694624  1.07128551
F  -1.49725685  2.08319036 -0.08391968

