47
Total Energy                               R     -8.273459947296435E+02
C   0.80010725  1.51352598  0.05123851
C   1.62373308  2.38949656 -0.89758557
C  -0.46125609  2.24895589  0.48397505
N   0.44919807  0.25541183 -0.63814706
O  -0.37606468  0.22806402 -1.60226210
C   1.36179337 -0.88633442 -0.38375009
C   0.53651468 -2.11868029 -0.02022091
C   2.17136732 -1.15931027 -1.65349373
C   2.18706990 -0.38727880  0.84697704
C   3.68893869 -0.37146756  0.59982994
O   4.30981794  0.63958188  0.26139311
N   4.30413765 -1.54754118  0.79432226
C   1.60822833  0.98608457  1.23971732
H   1.03838311  2.63899790 -1.78644174
H   2.54160719  1.89065947 -1.21176312
H   1.89553110  3.31954540 -0.39198946
H  -1.04168223  2.58031495 -0.37994686
H  -0.17945970  3.13357530  1.06077094
H  -1.09389852  1.61938271  1.11430360
H  -0.13306431 -2.39239570 -0.83882316
H  -0.05772490 -1.94315158  0.87983696
H   1.20844856 -2.95940934  0.16992871
H   1.49035312 -1.38361010 -2.47696650
H   2.82041082 -2.02511326 -1.51115775
H   2.78626014 -0.30341411 -1.93887193
H   2.01621126 -1.08930490  1.66431996
H   3.78275812 -2.37886993  1.02336934
H   5.28487454 -1.64117682  0.57804905
H   2.38846479  1.69014554  1.52813125
H   0.94508841  0.85497972  2.09693083
N  -3.98965612 -0.29831312  0.19675933
C  -3.75949571  0.56021824 -1.00055464
C  -4.28875494  0.56618994  1.37340234
C  -5.14026523 -1.21040898 -0.06001867
C  -2.76748831 -1.10650188  0.47333170
H  -3.43884013  1.22491302  1.54558174
H  -4.66558278  1.13076719 -1.19798541
H  -2.92939678  1.23230920 -0.79510392
H  -3.52503634 -0.07908979 -1.84966960
H  -2.54941657 -1.71910338 -0.39906036
H  -1.94187321 -0.42853806  0.67338798
H  -2.95510271 -1.73671592  1.34116007
H  -6.02579805 -0.60911815 -0.25832739
H  -4.90722904 -1.83256415 -0.92249047
H  -5.29714231 -1.83120868  0.82044669
H  -5.18170716  1.15124561  1.15989688
H  -4.45417383 -0.06905590  2.24180420

