55
Total Energy                               R     -1.020123680354067E+03
C   0.07575975  0.67127075  0.34726170
C  -0.78620838  1.74117468 -0.34079279
C  -0.14552778  0.79890409  1.87345790
N  -0.31199301 -0.62953239 -0.25361342
O  -1.68156095 -0.87948518 -0.01684823
C   0.48596571 -1.82468531  0.11727521
C   0.27931863 -2.34522444  1.55840037
C   0.05426625 -2.93847276 -0.85274140
C   1.96820667 -1.52877910 -0.07431589
C   2.43899085 -0.18707826 -0.10090582
C   1.55382071  0.92016522  0.06877880
C   2.06577868  2.19220761  0.06348930
C   3.44750899  2.45571266 -0.12557986
N   3.89393776  3.77608250 -0.06858749
C   4.31148741  1.40132991 -0.29499511
C   3.83159855  0.07057218 -0.27162262
C   4.72566385 -1.02168041 -0.40211299
C   4.25594391 -2.30611698 -0.34570270
C   2.87934785 -2.55759741 -0.18081728
H  -1.83670852  1.59545830 -0.09440682
H  -0.67564460  1.69389691 -1.42796194
H  -0.51990090  2.74645914 -0.01192560
H  -1.11928290  0.39265239  2.15746742
H  -0.12223996  1.85344804  2.16294993
H   0.62631216  0.28872512  2.45053972
H  -0.78431263 -2.40621273  1.79791465
H   0.76734413 -1.71776469  2.30405900
H   0.70319703 -3.34905581  1.65096948
H  -1.01095726 -3.14110527 -0.73950158
H   0.58611154 -3.87154277 -0.66060775
H   0.24113186 -2.64414728 -1.88944401
H   1.41769609  3.04760119  0.21910803
H   3.20830132  4.45753530 -0.36258254
H   4.78135746  3.93257244 -0.52553265
H   5.37430021  1.57953663 -0.43619723
H   5.78488706 -0.82162179 -0.53483617
H   4.94242674 -3.14278549 -0.43156063
H   2.54839450 -3.58858476 -0.13694003
N  -5.23687743  0.34569562 -0.21758231
C  -4.54313278  0.82677562 -1.44690734
C  -6.69191759  0.65121704 -0.31879467
C  -5.04220021 -1.12709842 -0.08110754
C  -4.66881776  1.03091030  0.97867224
H  -6.81709377  1.72835585 -0.41689583
H  -4.98428608  0.33213957 -2.31064240
H  -4.67628307  1.90461195 -1.52303627
H  -3.48622387  0.57827446 -1.37192992
H  -3.61542373  0.77058162  1.06305484
H  -4.78662310  2.10599402  0.85481988
H  -5.20912427  0.69274417  1.86137866
H  -5.46222554 -1.61673782 -0.95805264
H  -3.97394178 -1.32917079 -0.00923179
H  -5.55582778 -1.46338028  0.81828579
H  -7.09556317  0.14515779 -1.19420109
H  -7.18790063  0.29548425  0.58257099

