43
Total Energy                               R     -1.230231480680012E+03
C   0.13171890 -1.76950203 -1.03074673
C   0.22021088 -1.30346499 -2.48748544
C  -0.02238456 -3.30686088 -0.99220223
N   1.47636154 -1.48266152 -0.39891052
O   2.43271609 -1.58156626 -1.07646833
C   1.65497965 -1.16247847  1.06951351
C   1.39202563 -2.48031019  1.83303982
C   3.09388258 -0.71964892  1.26944329
C   0.60091505 -0.13368440  1.44417897
C  -0.68103330 -0.19718667  0.83604912
C  -0.96370037 -1.04043969 -0.27125083
C  -2.24074157 -1.13907991 -0.75523828
C  -3.30366546 -0.37422992 -0.21288615
N  -4.58895095 -0.56378265 -0.70440173
C  -3.03156464  0.51200267  0.80518089
C  -1.73274014  0.61244596  1.34685615
C  -1.44934874  1.51423459  2.40629783
C  -0.19354182  1.58827342  2.93862246
C   0.83907986  0.74958947  2.46480355
H   0.98589539 -1.85693245 -3.02965740
H   0.42549994 -0.23550923 -2.54352520
H  -0.73863626 -1.50194692 -2.96346312
H   0.85223350 -3.78279241 -1.43829358
H  -0.89536667 -3.55079013 -1.59806133
H  -0.18103307 -3.68884958  0.01309087
H   1.99986088 -3.29481812  1.43479334
H   0.33999340 -2.75928667  1.82816176
H   1.68812735 -2.29161874  2.86601789
H   3.78512602 -1.50549604  0.96579133
H   3.25540697 -0.53949609  2.33062371
H   3.31498712  0.19374035  0.71622272
H  -2.46113955 -1.79053270 -1.59478442
H  -4.63203342 -0.88066245 -1.66265922
H  -5.21886415  0.20859778 -0.53938554
H  -3.82143511  1.13941826  1.20798923
H  -2.25027824  2.14027488  2.78682440
H   0.01882804  2.28041620  3.74623991
H   1.80924725  0.80493912  2.94112647
B   0.92752276  2.43505846 -1.29337012
F  -0.37271340  2.08289426 -1.70522125
F   1.53386246  3.23406144 -2.28550572
F   0.86311756  3.15273071 -0.08420981
F   1.70104583  1.26539489 -1.10843259

