53
Total Energy                               R     -1.310919192855554E+03
C  -0.56328318 -1.62364664 -1.36265881
C  -1.13652461 -2.75912270 -2.21778185
C   0.26456889 -0.67609047 -2.22238932
N   0.25986010 -2.19052839 -0.26196935
O   1.31436240 -2.85651632 -0.49092800
C  -0.40013254 -2.19952609  1.07072292
C  -0.86355591 -3.62037749  1.40753082
C   0.55228095 -1.68108499  2.14366587
C  -1.55252367 -1.26875149  0.79129598
C  -1.63358136 -0.93544853 -0.55374553
C  -2.61227364 -0.07386831 -1.02510093
C  -3.52229799  0.45273712 -0.11234653
O  -4.51747951  1.31354442 -0.49787293
C  -3.45407148  0.12078612  1.24087533
C  -2.46530022 -0.74311892  1.69513713
H  -0.32757861 -3.31715628 -2.69605760
H  -1.77401768 -2.33870228 -2.99926880
H  -1.73420528 -3.44718288 -1.61634112
H   1.07825701 -1.21619748 -2.71152495
H   0.68136640  0.13975672 -1.63308415
H  -0.37166875 -0.24701990 -3.00002998
H  -0.00479415 -4.29086441  1.49578843
H  -1.53854666 -4.00902211  0.64223753
H  -1.39304214 -3.61205248  2.36337506
H   1.42832388 -2.32872062  2.22589202
H   0.04049452 -1.68181324  3.10900984
H   0.88093261 -0.66280924  1.93100876
H  -2.67106324  0.19417143 -2.07613853
H  -4.46896439  1.47744231 -1.44525117
H  -4.17549036  0.54971969  1.92789547
H  -2.40960319 -0.99303500  2.75000794
N   3.84917993  0.43131458  0.04043581
C   4.04648774 -0.61394028  1.08386649
C   4.97057154  1.41022783  0.09592060
C   3.81441695 -0.21565602 -1.30205220
C   2.55924436  1.13934268  0.28221667
H   4.97983647  1.87503376  1.08028876
H   5.00216091 -1.10531870  0.90814860
H   4.04218539 -0.13777953  2.06279188
H   3.23580485 -1.33607102  1.01096676
H   1.75218836  0.41437038  0.22844094
H   2.59028011  1.59553791  1.26953321
H   2.43236781  1.90205627 -0.48348873
H   4.77367178 -0.69858791 -1.48131380
H   3.01598087 -0.95481963 -1.31000882
H   3.63077314  0.54890897 -2.05494529
H   5.90598588  0.88142728 -0.07924419
H   4.81588695  2.16393545 -0.67406919
B  -0.50291565  3.04622847  0.11259391
F  -0.32058604  1.97791701  1.01118904
F   0.43318823  4.06345181  0.40420117
F  -0.30870727  2.60009546 -1.21060411
F  -1.81116631  3.55710807  0.24661547

