52
Total Energy                               R     -1.251810496748636E+03
C  -0.89654665  0.79012853  1.49791886
C  -1.05003662 -0.64350045  2.00541717
C   0.29390608  1.46900013  2.18142534
N  -0.59004446  0.71625431  0.02377762
O   0.28158633  0.06529104 -0.41546239
C  -1.47404612  1.56877900 -0.83242803
C  -0.72526242  2.91215093 -0.96130660
C  -1.65424575  0.92922859 -2.19713215
C  -2.71657990  1.72909801  0.06352849
C  -3.77204059  0.67334493 -0.22830819
O  -3.53886508 -0.52744986 -0.07180408
N  -4.95156296  1.13297629 -0.65532985
C  -2.18474687  1.62578852  1.51445443
H  -0.12140691 -1.19871706  1.87003970
H  -1.86724166 -1.15638846  1.50224073
H  -1.27015190 -0.58289059  3.07243571
H   1.19783308  0.86694379  2.07845003
H   0.04727543  1.55025964  3.24156026
H   0.47128233  2.47128332  1.78987664
H   0.24743400  2.75895045 -1.43003440
H  -0.59629335  3.41621823 -0.00359711
H  -1.33582999  3.54393824 -1.60793268
H  -0.71396964  0.93195257 -2.74914299
H  -2.37861804  1.52829914 -2.75165988
H  -2.02308977 -0.09364093 -2.12409139
H  -3.13072902  2.72155423 -0.10806342
H  -5.12433790  2.11729298 -0.78215313
H  -5.69625252  0.48357844 -0.86128203
H  -2.92153318  1.17466151  2.17754442
H  -1.96943390  2.62749268  1.88506147
N   3.99638372  1.04299555 -0.19792448
C   3.43598532 -0.32713562 -0.01465186
C   4.51141663  1.54526341  1.10718206
C   5.10681113  0.99596046 -1.19055603
C   2.93084306  1.96045321 -0.69244192
H   3.68757285  1.57010785  1.81891545
H   4.23236415 -0.98325026  0.33273959
H   2.63967430 -0.28148842  0.72395818
H   3.04958723 -0.67732812 -0.96941392
H   2.53608751  1.56802412 -1.62764842
H   2.14592171  2.01838496  0.05778822
H   3.36601385  2.94569594 -0.85144583
H   5.88044614  0.32639881 -0.81882636
H   4.71337405  0.62795115 -2.13644710
H   5.50705590  2.00053754 -1.31540849
H   5.29203410  0.87238008  1.45759994
H   4.91348250  2.54644005  0.96221364
B   0.12782913 -3.50082111 -0.16146693
F   0.44943490 -4.60681981 -0.97734952
F  -0.61377372 -3.94116216  0.95443721
F   1.31790368 -2.88403438  0.27842214
F  -0.63974762 -2.58022884 -0.90440793

