30
Total Energy                               R     -5.587402099562510E+02
C  -0.84062105 -1.11368945  0.02490125
C   0.08785167  1.76126930  1.51422364
C  -1.15408256 -1.33578756  1.51750999
N  -0.97396572  0.38664611 -0.21048424
O  -2.02333671  0.80363490 -0.54936852
C   0.15300804  1.38647742  0.02079542
C  -1.88895011 -1.80693018 -0.83493854
C  -0.13591864  2.61099705 -0.83657321
C   1.48324483  0.73825788 -0.37460444
C   1.68177759 -0.67352122  0.16124306
O   2.89857721 -1.22616678 -0.31408610
C   0.57161322 -1.56438332 -0.36083067
H  -0.91884463  2.07353315  1.79818443
H   0.76083880  2.61132897  1.64185606
H   0.41961456  0.96194752  2.17308403
H  -2.09869755 -0.86520890  1.79725728
H  -0.36360345 -0.98594025  2.17800714
H  -1.25592017 -2.41470445  1.64857459
H  -2.90416666 -1.59696966 -0.49816086
H  -1.71615865 -2.88072851 -0.74583896
H  -1.78857551 -1.53081951 -1.88680589
H  -1.01563767  3.15680879 -0.49518089
H   0.72867919  3.27138367 -0.75122836
H  -0.25831118  2.34212902 -1.88796205
H   1.55554839  0.70748134 -1.46617338
H   0.64568544 -1.60771607 -1.45187494
H   0.68752967 -2.58185968  0.01898177
H   3.63293143 -0.73659002  0.07110032
H   2.26962752  1.40434556 -0.00949420
H   1.68775864 -0.67082823  1.25634157

