30
Total Energy                               R     -5.590101210757133E+02
C  -0.03769461  0.37760495  1.26366575
C   1.44253125  0.65884476  1.59042143
C  -0.87828145  0.97591438  2.39813588
N  -0.52202272  0.99106932  0.00000000
O  -0.26586409  2.37197963  0.00000000
C  -0.03769461  0.37760495 -1.26366575
C  -0.87828145  0.97591438 -2.39813588
C   1.44253125  0.65884476 -1.59042143
C  -0.30711940 -1.13603737 -1.23739398
C   0.24315560 -1.82275553 -0.00000000
O  -0.04887774 -3.22298933 -0.00000000
C  -0.30711940 -1.13603737  1.23739398
H  -0.66305073  2.03934811  2.51670544
H   1.65697428  1.70198672  1.34561236
H   1.63927209  0.50269461  2.65683205
H  -1.94667588  0.86697521  2.18309879
H  -0.66623752  0.46828981  3.34596041
H  -1.39325772 -1.30438309  1.26342856
H  -1.94667588  0.86697521 -2.18309879
H  -1.39325772 -1.30438309 -1.26342856
H  -0.66623752  0.46828981 -3.34596041
H  -0.66305073  2.03934811 -2.51670544
H   1.63927209  0.50269461 -2.65683205
H   1.65697428  1.70198672 -1.34561236
H   2.13651884  0.02346140 -1.03716186
H   0.11221161 -1.59686838 -2.13913524
H  -1.00649118 -3.32829643 -0.00000000
H   1.33491184 -1.78350742 -0.00000000
H   2.13651884  0.02346140  1.03716186
H   0.11221161 -1.59686838  2.13913524

