31
Total Energy                               R     -5.391650101251360E+02
C  -0.28945256  1.29146196 -0.03501162
C   1.21265864  1.13243045 -0.31713113
C  -0.78934534  2.47891617 -0.86751176
N   3.23487904 -0.32607729 -0.10048858
O  -2.38898308  0.19134603 -0.29582436
C   1.01351950 -1.32853214 -0.30544010
C  -1.17765366 -2.32827675 -0.85913222
C   1.81341766 -0.15566814  0.23206906
C  -0.77969305 -1.53898206  1.45473484
C  -0.49539274 -1.23235605 -0.02967528
N  -0.99314286  0.07768071 -0.52217856
C  -0.51299961  1.64685671  1.44906103
H   3.74514291  0.48531041  0.23613608
H  -0.20235174  2.68064279  1.63169914
H   1.74392279  1.99930090  0.09378534
H   1.37478689  1.14485913 -1.40369675
H  -0.17254234  3.36211745 -0.67250640
H  -0.73325839  2.25539104 -1.93726114
H   3.32940442 -0.30422144 -1.11301723
H   1.17268152 -1.38152873 -1.39144857
H  -1.08409506 -2.12197735 -1.92968314
H   1.38910389 -2.26698103  0.11698025
H  -0.64842732 -2.60922703  1.64370821
H   1.75283049 -0.14614230  1.32405330
H  -0.11798482 -1.00896072  2.14013262
H  -0.70993110 -3.29756183 -0.65860548
H  -2.23975952 -2.41587021 -0.61961759
H  -1.57021616  1.56936023  1.71323265
H  -1.81006771 -1.28221172  1.71052658
H   0.05391070  1.01660838  2.13452017
H  -1.82379109  2.73399892 -0.62545020

