42
Total Energy                               R     -1.127665063478378E+03
C  -0.92549650  1.46052225  0.01090811
C  -0.94193370  2.95134281  0.14888771
C  -3.83284101 -0.92194390 -0.16112244
N   2.53309171  0.22316424 -0.64843504
O   3.84960401  0.73117357 -0.66763620
C   3.31699643 -2.01041459 -1.08574822
C  -0.39424692 -3.53171022  0.29830904
C   1.70796501  2.45496849 -0.93652660
C   1.11808212 -1.65148719  0.03277137
C   0.00044919 -0.76604408 -0.00632428
C   0.19705321  0.65462990 -0.02293710
C  -2.43675154 -0.43330343 -0.02725099
C  -2.22678778  0.91664256 -0.02060169
O  -4.72357117 -0.11763708  0.43088415
O  -1.40057492  3.55668680 -0.94823782
C  -1.31881633 -1.31969473  0.03199004
C   1.99258906  1.61988367  1.41992462
C  -1.48598533 -2.71513560  0.19228598
O  -4.17221672 -1.91909541 -0.76551438
O  -0.67876120  3.55159393  1.16755432
C   1.61918097  1.21794788 -0.02598933
C   0.90037838 -2.99968033  0.20485728
C   3.23135569 -1.28932857  1.30092699
C   2.54490502 -1.13974450 -0.07623549
H   1.26329046  2.25612121 -1.91519114
H   1.23570621  3.33640679 -0.50654601
H   1.54872830  2.58136188  1.68057775
H  -3.07309281  1.59247402 -0.04874635
H  -5.61656669 -0.44501808  0.25225714
H  -2.48048978 -3.13448757  0.25377915
H   2.82636352 -1.99609887 -2.06299738
H  -0.52551599 -4.59832376  0.44722410
H   1.74039784 -3.67981682  0.27674062
H   4.20099205 -0.78875917  1.29835123
H   4.33115721 -1.62885941 -1.20351323
H   2.75676412  2.70562885 -1.08178756
H  -1.47944090  4.50877583 -0.78787342
H   1.64614712  0.89075220  2.15334622
H   3.07729762  1.71119789  1.50352362
H   2.63176825 -0.88429631  2.11557268
H   3.39925551 -2.34839258  1.51425658
H   3.39318003 -3.04729276 -0.75507923

