32
Total Energy                               R     -8.213577308401752E+02
C   0.69223614 -0.46737017  0.32352048
C   1.90296679  1.09787598 -1.33548375
C   1.57364932 -1.58186915 -0.19743724
N   0.00003570  1.75081918 -0.00002826
O   2.67505746 -1.72031081  0.53171512
C   1.26751900  0.93980973  0.05514438
C  -1.90285920  1.09797670  1.33551915
C   2.15776525  1.49357939  1.15420026
C  -1.26748098  0.93986397 -0.05513848
C  -2.15775842  1.49365041 -1.15415824
O  -2.67509535 -1.72024867 -0.53176117
O   0.00006382  2.92249507 -0.00007269
C  -0.69225818 -0.46734008 -0.32351753
C  -1.57372058 -1.58179948  0.19744043
O   1.31103431 -2.27164064 -1.15435714
O  -1.31116901 -2.27153553  1.15440338
H   2.12898104  2.14895617 -1.51761347
H  -1.65389502  1.45228871 -2.12127860
H   1.26001418  0.72070861 -2.13226426
H   2.83729508  0.53379448 -1.33561557
H  -0.60250751 -0.60090619 -1.40414951
H   3.22629792 -2.42902965  0.16799349
H   1.65384560  1.45226938  2.12129375
H   0.60247784 -0.60094519  1.40415093
H  -1.25987290  0.72083294  2.13228331
H   2.45074337  2.52017724  0.93233960
H  -2.45067044  2.52026938 -0.93230804
H   3.05635860  0.87768178  1.19784558
H  -2.83719164  0.53390168  1.33571330
H  -2.12885357  2.14906544  1.51762393
H  -3.05638842  0.87780186 -1.19773763
H  -3.22636871 -2.42894007 -0.16803582

