31
Total Energy                               R     -5.388748675161901E+02
C  -1.23500015 -1.09859977 -0.34801043
C   0.41040966 -1.71218981  1.51857121
C   0.81197701 -2.48917777 -0.83239249
N  -3.19090863  0.44097620 -0.22040053
O   2.15438321 -0.24722202 -0.60732730
C  -0.95154567  1.36434875 -0.34758541
C   1.36230478  2.24239758 -0.82234630
C  -1.80381695  0.21892332  0.17867143
C   0.77957711  1.57197848  1.52300054
C   0.53212633  1.29099372  0.02814121
N   1.04515620 -0.12022812 -0.22676683
C   0.22588838 -1.37658124  0.02575888
H  -3.77626380 -0.29717767  0.15733967
H  -0.00247564 -2.71326466  1.65612119
H  -1.81394397 -1.94433559  0.03214158
H  -1.32468543 -1.10602801 -1.44009003
H   0.15145788 -3.35197363 -0.73026225
H   0.84284687 -2.20636923 -1.88687130
H  -3.27163757  0.37955174 -1.23183511
H  -1.03520798  1.39575107 -1.43986875
H   0.92139486  3.23471638 -0.71335174
H  -1.31813301  2.31961842  0.03472149
H   0.61295098  2.64178929  1.66122691
H  -1.78607950  0.21815842  1.27159364
H   0.09808089  1.03558216  2.17925108
H   2.40034674  2.29378591 -0.49300332
H   1.32799582  1.96757148 -1.87895983
H   1.46766635 -1.73660581  1.78961214
H   1.81022589  1.34584256  1.80321829
H  -0.12030378 -1.03235777  2.18085400
H   1.80944268 -2.78427499 -0.50589947

