28
Total Energy                               R     -5.577201030418782E+02
C  -0.29286180  0.01656098  1.31811289
C  -0.23614871 -1.46906512 -1.69873594
C  -0.23614872 -1.46906512  1.69873593
N  -0.97566768  0.17657113  0.00000000
O   2.96236730 -0.28133175 -0.00000000
C   1.86588031  0.23746292 -0.00000000
C   1.12605343  0.61113642  1.25458613
C   1.12605343  0.61113643 -1.25458613
C  -1.10001694  0.78326868 -2.36407109
C  -1.10001694  0.78326868  2.36407109
O  -2.23825480  0.01712820  0.00000000
C  -0.29286180  0.01656098 -1.31811289
H   0.46616318 -2.03180903  1.08093214
H   0.08689694 -1.56404184 -2.73886721
H   0.46616318 -2.03180903 -1.08093215
H   0.08689694 -1.56404184  2.73886721
H  -1.22570252 -1.92228384  1.60420287
H  -2.07362104  0.32205744  2.53181000
H   1.68775212  0.29716749  2.13573097
H  -0.55018121  0.78129927  3.30879543
H  -1.25181303  1.82117512  2.05640159
H   1.05495802  1.70520167  1.26478749
H   1.05495802  1.70520167 -1.26478749
H   1.68775212  0.29716749 -2.13573097
H  -0.55018122  0.78129927 -3.30879543
H  -1.25181303  1.82117512 -2.05640159
H  -2.07362104  0.32205744 -2.53180999
H  -1.22570252 -1.92228384 -1.60420287

