53
Total Energy                               R     -1.178043649170370E+03
C  -0.73109388  1.80869201  0.46365598
C  -2.00819840  2.62663243  0.24140853
C  -0.26276575  2.14579468  1.89172765
N  -1.08615905  0.36160159  0.31121885
O  -1.79474468  0.20861458 -0.89977110
C   0.09383603 -0.56062272  0.28286409
C   0.74035798 -0.72615765  1.67082281
C  -0.41178829 -1.95282916 -0.10987298
C   1.14389245 -0.10145644 -0.74668974
C   1.56504858  1.35898034 -0.57533671
N   2.50112279  1.81662073 -1.61304062
C   0.32788677  2.24913998 -0.56688463
H  -2.78413873  2.33488845  0.95912532
H  -2.40077548  2.47561147 -0.76213677
H  -1.79985388  3.69221076  0.38737588
H  -0.89376767  1.64529668  2.63290320
H  -0.34944947  3.22441605  2.05711260
H   0.77275741  1.88351925  2.09955448
H  -0.02708724 -0.82645091  2.44498343
H   1.40493313  0.08634897  1.95751270
H   1.34507071 -1.63820273  1.68226566
H  -1.16475389 -2.30739326  0.60440837
H   0.41931882 -2.66641357 -0.10401031
H  -0.86280485 -1.94057398 -1.10012451
H   0.71611702 -0.21478572 -1.74991670
H   2.02587121 -0.75035567 -0.69145142
H   2.09482619  1.47160390  0.37599824
H   2.06501425  1.69497872 -2.52393822
H   3.31363913  1.20544874 -1.61300334
H  -0.12793921  2.21199939 -1.56368795
H   0.61933555  3.28999093 -0.37909820
N  -4.83305116 -0.88362857 -0.13710244
C  -4.10783176 -0.68747482  1.15280463
C  -4.07604114 -1.86868259 -0.96426304
C  -6.21093091 -1.37502539  0.11939250
C  -4.87349533  0.41781237 -0.86673724
H  -3.08163524 -1.43713481 -1.11981270
H  -4.07625957 -1.64224859  1.67800749
H  -3.09893813 -0.33232599  0.92627200
H  -4.65499776  0.04312663  1.74876446
H  -5.40493597  1.14402819 -0.25182676
H  -3.83085246  0.71138491 -1.02740556
H  -5.40097328  0.27001464 -1.80907794
H  -6.15325091 -2.32274020  0.65342285
H  -6.74181128 -0.63887186  0.72177470
H  -6.71919456 -1.51436409 -0.83380446
H  -4.02428089 -2.81160364 -0.42030215
H  -4.60634369 -2.01007758 -1.90585318
B   4.98745638 -0.85557763  0.05683435
F   4.83943600 -0.38747469 -1.26893522
F   6.35682745 -1.07182465  0.32175027
F   4.48122203  0.10457914  0.95469835
F   4.28264676 -2.06676070  0.20971817

