53
Total Energy                               R     -1.177763019700390E+03
C   0.13428256 -0.55345204 -0.90507858
C   0.66944919  0.79716966 -1.35734374
C   1.22547090 -1.63179316 -1.05925211
N  -0.15470315 -0.45955647  0.58583568
O   0.43246290  0.34189542  1.21834690
C  -1.10333323 -1.39677618  1.31579659
C  -0.28531282 -2.66003711  1.64676239
C  -1.53143878 -0.71102958  2.60481763
C  -2.30453392 -1.69302648  0.41216833
C  -1.96100685 -2.04647290 -1.03273000
N  -3.15069783 -2.27793013 -1.85196596
C  -1.15425407 -0.91438673 -1.64998870
H   1.62634616  1.03722043 -0.89539891
H  -0.04325526  1.59482785 -1.14572658
H   0.81604029  0.73892779 -2.43701747
H   2.04052876 -1.47834328 -0.35114107
H   1.62199590 -1.52254857 -2.06981153
H   0.84059097 -2.64346862 -0.95335611
H   0.65966808 -2.40017831  2.12744581
H  -0.09367494 -3.28782175  0.78008327
H  -0.88674009 -3.23281325  2.35473044
H  -0.70433085 -0.60829265  3.30777707
H  -2.29394603 -1.34221965  3.06423404
H  -1.96689688  0.26873741  2.40719670
H  -2.96900869 -0.82510653  0.41507894
H  -2.84553166 -2.51752602  0.88403901
H  -1.37606494 -2.96867834 -1.05489071
H  -3.74196002 -1.45180236 -1.80478882
H  -3.69113848 -3.03021537 -1.43638848
H  -1.78417853 -0.02304366 -1.71002369
H  -0.85440867 -1.17434467 -2.66793071
N   4.91748808  0.58995995 -0.00960113
C   4.72656472  2.04642690 -0.26320658
C   6.33018713  0.33472480  0.39053105
C   4.00716003  0.15588148  1.08767636
C   4.60697669 -0.17238307 -1.25298483
H   6.98656405  0.66150079 -0.41395863
H   4.95912068  2.59319383  0.64896146
H   5.39582184  2.35161831 -1.06570267
H   3.69094064  2.21777691 -0.55202231
H   3.58816647  0.05540699 -1.55787238
H   5.30653478  0.13125681 -2.02979740
H   4.71069874 -1.23628751 -1.04748104
H   4.26124424  0.70880783  1.99039614
H   2.98131174  0.36959332  0.79679155
H   4.14014235 -0.91211862  1.25123064
H   6.54260516  0.89489607  1.29944522
H   6.45554032 -0.73195122  0.56875278
B  -3.37618876  1.96985503  0.01982721
F  -3.75609536  1.33859782 -1.18150485
F  -3.50559799  3.36544202 -0.11762160
F  -4.19842277  1.51715887  1.07054267
F  -2.02847993  1.65459801  0.31284459

