43
Total Energy                               R     -1.230230703948006E+03
C  -1.28321459 -0.40109746 -1.63986416
C  -1.19046620 -1.68559224 -2.44003291
C  -2.12890665  0.64248641 -2.39409479
N  -2.00192812 -0.70284395 -0.34740414
O  -2.47655801 -1.76727978 -0.17664530
C  -2.15827638  0.33314920  0.74342836
C  -3.59124797  0.87850049  0.57487006
C  -2.03404595 -0.40957943  2.07975175
C  -1.07161616  1.38890633  0.63398142
C   0.05796467  1.18787033 -0.20217797
C   0.04865411  0.18917364 -1.21051995
C   1.20685763 -0.08357125 -1.89322988
C   2.38132093  0.64092787 -1.64651035
C   2.40398482  1.68708381 -0.74537819
N   3.53996040  2.46088405 -0.59232405
C   1.21055187  1.99670544 -0.01118964
C   1.14122614  3.07972768  0.89627718
C  -0.00400559  3.32306896  1.60874416
C  -1.10416870  2.45342883  1.50137933
H  -2.18542294 -2.08261175 -2.64345837
H  -0.59744654 -2.44348036 -1.92671802
H  -0.72473726 -1.45983489 -3.39873080
H  -3.14686008  0.28168488 -2.55417659
H  -1.64694430  0.77928951 -3.36344191
H  -2.15377893  1.60852270 -1.89182808
H  -4.30503219  0.05347051  0.59380441
H  -3.71491374  1.45180196 -0.34161838
H  -3.79762841  1.52842944  1.42502225
H  -2.80474257 -1.17343742  2.17871159
H  -2.16824906  0.32003568  2.87752383
H  -1.04806690 -0.86378311  2.17971140
H   1.23436502 -0.85362870 -2.65412269
H   3.28346499  0.39299892 -2.19681244
H   4.37903685  2.04388155 -0.96933776
H   3.69991771  2.84869923  0.32547923
H   1.99069869  3.73976979  1.02881383
H  -0.05450258  4.16493511  2.28992946
H  -1.96135853  2.61339469  2.14622425
B   1.50005836 -2.49550695  0.96793039
F   2.22868798 -2.75618395 -0.20991685
F   1.80616512 -3.47773240  1.93486948
F   1.84317089 -1.22436940  1.46877416
F   0.11758438 -2.53813391  0.68560945

