55
Total Energy                               R     -1.020125779067143E+03
C  -1.90007664 -0.29208778 -1.40847836
C  -1.50336023 -1.12627331 -2.63856018
C  -3.21942830  0.44227110 -1.73773532
N  -1.96790439 -1.24777463 -0.27709556
O  -2.99729722 -2.19209849 -0.50466464
C  -2.08968809 -0.69256979  1.09269622
C  -3.45924060 -0.06501406  1.44222999
C  -1.85057154 -1.87673679  2.04544107
C  -1.01895118  0.36954315  1.31511410
C  -0.44294564  1.06195930  0.21032373
C  -0.82661242  0.74993282 -1.12459757
C  -0.23218263  1.44955685 -2.14724028
C   0.75361667  2.42572223 -1.92014131
C   1.16012040  2.73947648 -0.64518143
N   2.10770906  3.74511705 -0.42279181
C   0.54347075  2.06773839  0.45655681
C   0.90914965  2.36969823  1.79114586
C   0.32879991  1.70358588  2.83563130
C  -0.63143690  0.70422488  2.59263581
H  -2.24270376 -1.90812435 -2.81263180
H  -0.52904168 -1.60049329 -2.48626127
H  -1.45204395 -0.51903843 -3.54386151
H  -4.05406088 -0.26061337 -1.78827558
H  -3.13346789  0.93422835 -2.71099359
H  -3.45889283  1.21443880 -1.00620558
H  -4.27635469 -0.72341838  1.13946449
H  -3.60352752  0.90714749  0.97011187
H  -3.53031937  0.08579417  2.52312791
H  -2.57804618 -2.66319437  1.84652270
H  -1.95883514 -1.58918133  3.09228714
H  -0.84773408 -2.29101639  1.90339320
H  -0.50993203  1.25424008 -3.17655357
H   1.20834627  2.93152880 -2.76734628
H   2.62115012  3.98595091 -1.25959715
H   2.75345984  3.55927427  0.33189107
H   1.64094903  3.14165583  1.99942975
H   0.60459757  1.94310503  3.85745484
H  -1.07167449  0.20336908  3.44649396
N   2.98609306 -1.87806558 -0.08307412
C   2.41294890 -0.51566540  0.10967968
C   3.74262363 -2.27683919  1.13668812
C   1.87711883 -2.84509011 -0.32060839
C   3.90108589 -1.87183413 -1.25872033
H   4.54807810 -1.56269817  1.29828942
H   1.75099456 -0.54025260  0.97322083
H   3.22722087  0.18770193  0.27602257
H   1.85675861 -0.24710970 -0.78674983
H   3.33408993 -1.57763071 -2.14031802
H   4.70359842 -1.16001084 -1.07359360
H   4.30836427 -2.87277012 -1.39061572
H   1.21281018 -2.83398253  0.54203596
H   1.33388062 -2.53977504 -1.21356440
H   2.30160843 -3.83825436 -0.45769454
H   3.06149743 -2.27341961  1.98610381
H   4.14968111 -3.27519355  0.98518349

