50
Total Energy                               R     -8.669682024236056E+02
C  -1.82334031 -0.25273089 -1.27219605
C  -2.79977293  0.32412775 -2.29670327
C  -0.75586274 -1.07025615 -2.02038362
N  -2.58039347 -0.98646635 -0.21968341
O  -2.87882198 -2.31628422 -0.56748749
C  -1.87818168 -0.85190564  1.08834443
C  -2.90608936 -0.83222642  2.21908990
C  -0.82652504 -1.93127466  1.40374980
C  -1.19329891  0.47764012  0.90440874
C  -1.15956877  0.81639207 -0.44310206
C  -0.51661598  1.96655043 -0.87022898
C   0.08909177  2.75681573  0.09530300
N   0.77719021  3.98191756 -0.33347978
C   0.06467921  2.44364760  1.44446517
C  -0.58766737  1.28436856  1.85602089
H  -3.34921955 -0.48472488 -2.78750824
H  -2.27141644  0.88649771 -3.07291356
H  -3.52197301  0.99126503 -1.81881259
H  -1.22119024 -1.85886677 -2.61588058
H  -0.03508808 -1.53198138 -1.34676792
H  -0.20364829 -0.41545967 -2.70133807
H  -3.46083114 -1.77518969  2.23753516
H  -3.62008683 -0.01520997  2.08597650
H  -2.42065728 -0.71174335  3.19247211
H  -1.29696542 -2.91096150  1.51491787
H  -0.32758808 -1.68866244  2.34663045
H  -0.06027258 -2.00736207  0.63169463
H  -0.46700437  2.23767316 -1.92043266
H   1.30629623  3.83165496 -1.19399197
H   1.43221582  4.31258554  0.37664295
H   0.11601792  4.74044010 -0.51327945
H   0.55635065  3.08960520  2.16447266
H  -0.60405481  1.01923038  2.90803110
N   3.27629410 -0.95248298 -0.08773266
C   2.83963379 -2.12631306 -0.89569566
C   4.61905540 -0.50299557 -0.55093763
C   2.29805515  0.16107447 -0.25007529
C   3.34586021 -1.33843645  1.34971181
H   5.32565554 -1.32141607 -0.42496520
H   2.75552295 -1.82282944 -1.93765476
H   3.58248530 -2.91551110 -0.79167340
H   1.87630015 -2.46955612 -0.52449442
H   2.35519168 -1.65350444  1.67425267
H   4.05562987 -2.15668275  1.45953102
H   3.67335603 -0.47589316  1.92756120
H   2.23505351  0.42070686 -1.30510753
H   1.33137496 -0.17520714  0.11608643
H   2.64601657  1.01412004  0.32970890
H   4.54970069 -0.22476669 -1.60121422
H   4.92505355  0.35437850  0.04606469

