46
Total Energy                               R     -7.520659613743235E+02
C  -1.05452367  1.50211997  0.03062338
C  -1.38438875  2.69700463  0.92540555
C   0.09192540  1.83616827 -0.92479176
N  -0.70553193  0.32843829  0.86001105
O   0.24788827  0.33939360  1.69747999
C  -1.60791263 -0.83396486  0.69569711
C  -0.81547252 -2.04252814  0.19381736
C  -2.28840952 -1.14712994  2.02953189
C  -2.56449588 -0.28642271 -0.34492188
C  -3.69257143 -1.12526341 -0.84929110
N  -4.48677045 -0.44731261 -1.87136091
C  -2.25999963  0.96207001 -0.68645027
H  -0.50317586  3.00878871  1.49207396
H  -2.18632372  2.45114330  1.62584187
H  -1.70870006  3.53877310  0.30861203
H   0.98602537  2.12673474 -0.36745149
H  -0.19658052  2.67394115 -1.56459523
H   0.33237044  0.98224601 -1.56249345
H  -0.02785833 -2.29972235  0.90636219
H  -0.35964587 -1.83893639 -0.77813455
H  -1.47598864 -2.90678838  0.09365043
H  -1.53944750 -1.40318401  2.78292833
H  -2.96081514 -2.00031013  1.91799414
H  -2.86704868 -0.29066732  2.38447498
H  -4.29498909 -1.44533343  0.01262202
H  -3.28359355 -2.04266038 -1.28406609
H  -4.92990841  0.36794854 -1.45886532
H  -5.24184112 -1.06399539 -2.14948730
H  -2.79139762  1.57091557 -1.40819259
N   3.74220427 -0.29612979 -0.32226623
C   3.68153957  0.63378238  0.84151938
C   4.96512251 -1.14121021 -0.22127998
C   2.53187152 -1.16599811 -0.32463904
C   3.78503562  0.49364344 -1.58577375
H   5.83973717 -0.49308288 -0.21740914
H   3.63934524  0.04642980  1.75688527
H   4.57285036  1.25887437  0.83531066
H   2.78991650  1.25038542  0.75050500
H   2.89062513  1.11174949 -1.64134949
H   4.67493549  1.12056928 -1.57646663
H   3.81921761 -0.19571409 -2.42775412
H   2.50108683 -1.72543132  0.60830676
H   1.65431012 -0.53240622 -0.41327576
H   2.59199531 -1.84727099 -1.17174095
H   4.91832354 -1.71498147  0.70271464
H   4.99783216 -1.81176275 -1.07820885

