45
Total Energy                               R     -8.262155245829506E+02
C  -0.90557182  1.67892581 -0.16400107
C  -0.04838370  1.95330944  1.08565059
C  -0.90202176  2.93117351 -1.04459805
N  -0.49014126  0.50547540 -0.96767610
O   0.88712689  0.30072460 -0.99382918
C  -1.26288689 -0.68550439 -0.51580217
C  -1.52028736 -1.56876682 -1.73885378
C  -0.56911671 -1.53498838  0.56400357
C  -2.50084243 -0.02743028  0.07060768
C  -3.74914667 -0.75780652  0.43004941
O  -4.12979830 -1.75771771 -0.17323924
N  -4.45215872 -0.24667700  1.46875286
C  -2.29089545  1.27608473  0.25374084
H   0.97859433  2.17731846  0.78964275
H  -0.02620643  1.09981663  1.76580046
H  -0.44708619  2.81252011  1.63574669
H   0.10854061  3.11496839 -1.42295668
H  -1.22104441  3.81820664 -0.48627016
H  -1.56911898  2.80460754 -1.90244689
H  -0.55714064 -1.79559527 -2.20779133
H  -2.14293198 -1.04998046 -2.47333511
H  -2.01084089 -2.50790063 -1.47576001
H   0.36449700 -1.94627317  0.17508999
H  -1.21673484 -2.36714867  0.86034962
H  -0.33698010 -0.95508161  1.45937209
H  -4.10306422  0.50479666  2.03978761
H  -5.31255427 -0.69324455  1.74632989
H  -3.00023698  1.98734286  0.66842359
N   3.81407859 -0.39240211  0.26092606
C   5.16628744 -0.70182029  0.79400372
C   3.39972438 -1.43241867 -0.72663830
C   2.81535230 -0.36086941  1.36993144
C   3.82120683  0.93885821 -0.41488028
H   4.12208173 -1.44134524 -1.54270705
H   5.13761482 -1.67420970  1.28369196
H   5.87489486 -0.72003692 -0.03308644
H   5.44686659  0.06912106  1.51026564
H   4.12061344  1.69394822  0.31146616
H   4.53870927  0.90599558 -1.23439156
H   2.80783648  1.12355544 -0.78064102
H   2.80221769 -1.33788889  1.85230947
H   3.11427441  0.40562193  2.08448965
H   1.85255699 -0.12739251  0.90800598
H   3.39150309 -2.40032798 -0.22626802
H   2.40155067 -1.16270461 -1.08187122

