40
Total Energy                               R     -1.159496597660447E+03
C   2.47966606 -1.26008497  0.07325085
C   3.00886120 -2.42951430 -0.77469656
C   2.92823609 -1.48398763  1.53654105
N   3.02251838 -0.04191246 -0.56513039
O   4.41791882 -0.03590415 -0.46928440
C   2.48329777  1.25438600 -0.10009446
C   2.94863452  1.68113288  1.31212095
C   3.00081867  2.29061465 -1.11287536
C   0.96582308  1.23007513 -0.11392790
C   0.24826918 -0.00182922 -0.04767944
C   0.96186207 -1.23591626  0.03990067
C   0.25799406 -2.41292805  0.15142962
C  -1.13631235 -2.43441538  0.06457872
C  -1.83134417 -1.26382948 -0.06645340
N  -3.24648074 -1.40789326 -0.40279823
O  -3.88046764 -2.29852122  0.12914928
O  -3.70404272 -0.66265773 -1.25468426
C  -1.18489824  0.00136837 -0.03209848
C  -1.82525156  1.26657318  0.03623851
N  -3.24251862  1.40816032  0.37000947
O  -3.70160491  0.66275175  1.22059400
O  -3.87466294  2.29865424 -0.16362126
C  -1.12524706  2.43990823 -0.03773765
C   0.26735439  2.41607763 -0.13579240
H   4.09369459 -2.34024498 -0.82076796
H   2.61380222 -2.37866194 -1.79410388
H   2.75731460 -3.40370667 -0.35071508
H   3.99033303 -1.23690510  1.60092893
H   2.78616936 -2.52852133  1.82849960
H   2.37503715 -0.86683021  2.24588640
H   4.00715922  1.42875477  1.40558047
H   2.39232568  1.18268285  2.10728557
H   2.82443930  2.75903012  1.45049627
H   4.08495607  2.19189856 -1.16058556
H   2.75679285  3.31609812 -0.82841069
H   2.59114906  2.09673195 -2.10903146
H   0.77367716 -3.35820064  0.25564250
H  -1.66482373 -3.37965272  0.04728348
H  -1.64932650  3.38554054  0.02926046
H   0.78895950  3.36313666 -0.17527005

