39
Total Energy                               R     -9.389740136275157E+02
C   1.93235785  0.69518196 -0.06146047
C   3.24057013 -0.02238915  0.06684171
C   1.02671660  2.93145852 -0.10988118
N  -0.87745949 -1.78080650 -0.34981262
O   3.92834633 -0.03324445 -1.07496511
C   0.67952425  0.11581385 -0.01808997
C  -0.27950922  2.39502872 -0.03210874
C   1.47546517 -2.20631605 -0.70575148
C  -0.46331564  0.98021556 -0.02388336
C  -1.79565142  0.47948029  0.01088727
C   0.48417320 -1.39280963  0.13217587
C   0.59538706 -1.78177763  1.61806453
C   2.10328740  2.10143282 -0.13841425
O  -1.06481472 -3.02112610 -0.57101476
O   3.68456947 -0.45637977  1.10707380
C  -1.39347953  3.26225870  0.04884716
C  -2.79870377 -1.51906670  1.16785101
C  -2.11414626 -0.99801762 -0.10702538
C  -2.84954979  1.35805018  0.11977288
C  -3.02734867 -1.23468590 -1.32002849
C  -2.65678981  2.75050120  0.14684218
H   4.79887683 -0.43350012 -0.92937142
H   2.47724390 -2.16301290 -0.28700909
H   1.62376821 -1.65308155  1.95686471
H   3.10780060  2.50785220 -0.18988459
H  -0.04745032 -1.15999266  2.24293231
H   1.15637520  4.00823909 -0.13675342
H  -1.22147983  4.33373730  0.04192388
H  -3.51580719  3.40768555  0.22699734
H  -3.86428736  0.98031609  0.17112530
H   1.50178833 -1.85839493 -1.74032604
H  -3.25076262 -2.29609309 -1.42760588
H   1.18740939 -3.25502259 -0.69567008
H   0.31296027 -2.82919768  1.74824369
H  -2.21039332 -1.30348039  2.06049140
H  -3.77379319 -1.04195081  1.28062447
H  -2.95351096 -2.59720914  1.09529752
H  -3.97064959 -0.70487347 -1.18811431
H  -2.55460583 -0.87652773 -2.23766464

