40
Total Energy                               R     -1.285312942142125E+03
C  -2.15705582 -0.06865878  0.99824582
C  -1.81187008 -0.87377350  2.24303869
C  -3.55206453  0.56630951  1.14631472
N  -1.17601875  1.11361813  0.95899016
O  -0.73854302  1.48382845  1.98561959
C  -0.80098389  1.88920883 -0.29147461
C  -1.97049903  2.84754341 -0.58858820
C   0.44441463  2.71222768  0.01003159
C  -0.59613622  0.88220772 -1.43953581
C   0.72502292  0.14258447 -1.33045379
O   1.49425875 -0.00087980 -2.25491676
O   0.92760053 -0.35516778 -0.11862756
C  -1.76116835 -0.10299541 -1.56624779
C  -1.98529515 -0.91838158 -0.29495544
C  -3.19566474 -1.81942292 -0.48756161
O  -4.16314971 -1.53670289 -1.15621516
O  -3.06849639 -2.98107122  0.14923658
H  -2.01304212 -0.30966114  3.15286201
H  -0.76742521 -1.19059608  2.22991110
H  -2.44370092 -1.76130462  2.25036977
H  -3.54077405  1.33804364  1.91717750
H  -4.22920506 -0.22447196  1.47310781
H  -3.93030988  0.98214601  0.21522461
H  -2.21414554  3.43178147  0.29974769
H  -2.86604671  2.35154319 -0.95185782
H  -1.61470224  3.52699396 -1.36444536
H   0.22369888  3.52251430  0.70425244
H   0.77199106  3.15135543 -0.93395672
H   1.25725681  2.11072456  0.41682773
H  -0.54418923  1.47661499 -2.35197077
H   1.79463221 -0.80899549 -0.05563435
H  -1.56084335 -0.78839871 -2.39195385
H  -2.66450465  0.44692369 -1.82941162
H  -1.13310913 -1.57555815 -0.12456131
H  -3.86297764 -3.51827820  0.01393432
B   4.45451649 -0.58227576  0.27848442
F   5.13861075 -0.80834127  1.48081043
F   3.34545837 -1.49094894  0.20479864
F   3.95608480  0.72958725  0.23986208
F   5.29888896 -0.81546099 -0.81531906

