60
Total Energy                               R     -1.444476136424049E+03
C  -0.58357953 -0.91121055 -1.85817462
C   0.42030818 -0.23522255 -2.77571338
C  -1.33895445 -2.02301057 -2.62100438
N   0.19025169 -1.61884296 -0.76790848
O   1.34766695 -1.77732580 -0.90653717
C  -0.46140725 -2.22440263  0.45733937
C  -0.62872411 -3.72321357  0.12727049
C   0.53439372 -2.05919478  1.61175316
C  -1.77520667 -1.52622328  0.75900894
C  -2.21256237 -0.39886795  0.01901098
C  -1.58081417  0.01651635 -1.18453177
C  -1.96612223  1.16732874 -1.81033858
C  -3.02410119  1.96696594 -1.30059951
N  -3.39736037  3.10523298 -2.00400562
C  -3.69644467  1.54632686 -0.17730225
C  -3.31352457  0.36409585  0.49542446
C  -4.00661426 -0.08066409  1.64908305
C  -3.61447436 -1.21942359  2.29860301
C  -2.48287962 -1.93730830  1.86295107
H   1.12545733 -0.96178316 -3.17818753
H   0.96577798  0.55558914 -2.25999204
H  -0.11728660  0.19450272 -3.61951912
H  -0.64959584 -2.79677269 -2.96336335
H  -1.79042041 -1.54071764 -3.48888116
H  -2.13524993 -2.46826103 -2.02740851
H   0.32998448 -4.14961762 -0.17197606
H  -1.37226650 -3.90055082 -0.64668546
H  -0.95595559 -4.21565756  1.04317628
H   1.47356061 -2.56745568  1.39631838
H   0.09585415 -2.51828592  2.49636177
H   0.72007407 -1.00639145  1.81848319
H  -1.48978355  1.48987402 -2.72838699
H  -2.65182506  3.53647578 -2.53189557
H  -3.91015045  3.78506084 -1.46059788
H  -4.53040028  2.12554144  0.20863761
H  -4.85398098  0.49642524  2.00561235
H  -4.15417511 -1.56345373  3.17429198
H  -2.16043348 -2.80089205  2.43362285
N   4.58816294  0.26484287 -0.04035947
C   4.24021458 -0.20703931 -1.41089043
C   3.71908306 -0.42382408  0.95752068
C   6.01715188 -0.04330185  0.24661058
C   4.36841440  1.73722424  0.04009636
H   2.68426711 -0.17165960  0.74355955
H   4.39021875 -1.28404452 -1.46011108
H   3.19922182  0.03912104 -1.60970921
H   4.88780512  0.29591463 -2.12718929
H   5.01867228  2.22554912 -0.68396313
H   3.32536430  1.94548521 -0.18796511
H   4.60725544  2.07278650  1.04743618
H   6.16178839 -1.12059166  0.18471565
H   6.63941819  0.46225550 -0.48989212
H   6.25609582  0.31100406  1.24801100
H   3.87951222 -1.49730250  0.87496374
H   3.99125724 -0.07832807  1.95359772
B   0.45680131  1.91264645  1.31031132
F  -0.24095767  2.97636612  0.70667013
F   1.62116644  2.40279930  1.93664519
F  -0.36239441  1.28967624  2.27042074
F   0.82688326  0.97444934  0.31702922

