60
Total Energy                               R     -1.444773890242093E+03
C  -0.73292831  0.74551984  0.56750029
C  -0.19701941  1.99763681  1.27770284
C   0.18358401  0.45446964 -0.64185572
N  -0.79448406 -0.32610825  1.59295327
O   0.50009994 -0.57002172  2.11258620
C  -1.43172881 -1.61282264  1.21188612
C  -0.59774645 -2.52712740  0.28435880
C  -1.66715853 -2.37365514  2.53002673
C  -2.77412099 -1.35014603  0.53875730
C  -3.08047280 -0.07124984 -0.00085748
C  -2.13528347  0.99736577  0.03036341
C  -2.47647133  2.21003733 -0.51007273
C  -3.74643684  2.44977230 -1.09721640
N  -3.99640487  3.69656394 -1.67055454
C  -4.66418849  1.42844708 -1.14469975
C  -4.34846325  0.15514909 -0.61399634
C  -5.27664523 -0.91283351 -0.69437140
C  -4.94924227 -2.14727437 -0.20083709
C  -3.70103253 -2.36360586  0.41553399
H   0.78612024  1.79362520  1.69789877
H  -0.86406009  2.30146638  2.08989958
H  -0.08738876  2.83742176  0.58991766
H   1.15297585  0.08873912 -0.29943412
H   0.35032311  1.37181896 -1.21250052
H  -0.25064180 -0.27777441 -1.32320634
H   0.42190869 -2.62894245  0.65892063
H  -0.55678490 -2.16025734 -0.74054297
H  -1.04557503 -3.52435651  0.25428066
H  -0.71924906 -2.54505208  3.04124183
H  -2.12663709 -3.34853446  2.35874145
H  -2.31815833 -1.80019359  3.19606535
H  -1.76582037  3.02929395 -0.51636793
H  -3.48573943  4.45755017 -1.24507338
H  -4.97722220  3.92156404 -1.76115149
H  -5.63845817  1.58671135 -1.59976992
H  -6.24141189 -0.73801253 -1.16160739
H  -5.65465215 -2.96926650 -0.27482092
H  -3.48195924 -3.35465876  0.79566476
N   3.56785171 -2.16279261 -1.23321066
C   3.32730387 -2.22652149  0.23703453
C   4.63601635 -3.13353059 -1.60173585
C   2.31264086 -2.50430909 -1.96057164
C   3.99736461 -0.78548458 -1.60929674
H   5.54329750 -2.87950034 -1.05639107
H   3.03196801 -3.24168658  0.49710580
H   4.24845540 -1.95996871  0.75217848
H   2.53540047 -1.52745423  0.49771694
H   3.20633488 -0.08776328 -1.34411595
H   4.91033480 -0.54619650 -1.06870877
H   4.17669645 -0.75911110 -2.68288064
H   1.98518014 -3.49540362 -1.65127204
H   1.55601625 -1.76321849 -1.71508665
H   2.51737513 -2.49212049 -3.02983955
H   4.30578965 -4.13573511 -1.33380628
H   4.81222773 -3.07034619 -2.67418975
B   3.95296244  2.27690829  0.49859519
F   2.97437305  2.55844164 -0.47641838
F   4.05829398  3.37027422  1.38563938
F   3.59287603  1.12222019  1.22011786
F   5.19680994  2.06687832 -0.13631280

