54
Total Energy                               R     -1.178420466379769E+03
C  -0.16361053  0.44797323 -1.19645568
C  -0.32173892 -0.70770317 -2.18345425
C  -1.23864736  1.50545153 -1.47821456
N  -0.33362358 -0.09244810  0.18500106
O  -1.30464530 -0.90049684  0.36330136
C   0.21670266  0.56326160  1.40850710
C  -0.75141171  1.64826239  1.89743296
C   0.36924452 -0.50401442  2.49112378
C   1.60315546  1.14210196  1.10535231
C   1.65201491  1.91726939 -0.19639538
N   3.05419785  2.38504241 -0.42227465
C   1.24726286  1.02452995 -1.35287971
H  -1.34681672 -1.07851845 -2.21042051
H   0.34698088 -1.53473429 -1.93312412
H  -0.06440021 -0.35079177 -3.18362082
H  -2.23100679  1.10726764 -1.26123151
H  -1.20403240  1.77193096 -2.53760834
H  -1.09792875  2.41912194 -0.89976014
H  -1.75039444  1.23259876  2.04391224
H  -0.82449777  2.49088307  1.20938361
H  -0.39940782  2.02964152  2.85922287
H  -0.59859473 -0.87265887  2.83236782
H   0.88649282 -0.06385253  3.34705867
H   0.96247452 -1.34796844  2.13070954
H   2.32422268  0.32195600  1.04709628
H   1.89651848  1.77846334  1.94449079
H   1.04246044  2.81966184 -0.15033921
H   3.69551688  1.58285048 -0.49040037
H   3.37093898  2.97943391  0.34326078
H   3.12749995  2.92099569 -1.28683142
H   1.96223252  0.19902635 -1.42010004
H   1.28549211  1.57529294 -2.29654444
N  -5.11213706 -0.52311567 -0.04010890
C  -4.34555730  0.53026401  0.68493971
C  -4.96564267 -1.82091516  0.67874201
C  -6.55186238 -0.14433504 -0.09743652
C  -4.57634281 -0.66157540 -1.42456331
H  -3.90894616 -2.07967760  0.72043264
H  -4.74096403  0.61585299  1.69571613
H  -3.29942230  0.23250180  0.71011090
H  -4.46145082  1.47407088  0.15478618
H  -4.67332930  0.29506807 -1.93503639
H  -3.52972049 -0.95341177 -1.36454863
H  -5.15088292 -1.42575246 -1.94556463
H  -6.92559627 -0.03844119  0.91951984
H  -6.64373400  0.79957070 -0.63168740
H  -7.09987671 -0.92699442 -0.61915575
H  -5.36531070 -1.70950206  1.68523578
H  -5.51956057 -2.58552721  0.13688112
B   4.48710119 -1.19615900 -0.05702869
F   4.68614496  0.05914156 -0.70929418
F   5.51681652 -2.06978653 -0.43930670
F   4.51498944 -0.99337043  1.33304671
F   3.24163121 -1.72080280 -0.44155607

