52
Total Energy                               R     -1.075095057386354E+03
C   0.15941817 -1.19840714  0.58779366
C  -0.30894036 -1.64118190  1.97363247
C  -0.65915021 -1.93448688 -0.48210103
N  -0.07081229  0.27350509  0.47065262
O  -1.19240681  0.71110202  0.89179151
C   0.66604796  1.15836175 -0.47420785
C   0.06046685  1.04128801 -1.88252335
C   0.51319165  2.61097899 -0.01576648
C   2.16350337  0.76884086 -0.52655508
C   2.99722217  1.32435405  0.61487076
O   4.03567216  1.92638403  0.43712485
O   2.51298886  1.07886086  1.82843355
C   2.33861581 -0.76312269 -0.67150497
C   3.80443693 -1.09207839 -0.85140024
O   4.39549204 -0.95208734 -1.90128567
O   4.40068586 -1.52793882  0.25670202
C   1.65715494 -1.51378290  0.46461850
H  -1.39294413 -1.58090934  2.07601684
H   0.15472302 -1.03734202  2.75734684
H  -0.01314811 -2.68228754  2.12440685
H  -1.69953423 -1.60679614 -0.46135272
H  -0.63630479 -3.00605091 -0.26839217
H  -0.26917234 -1.78740165 -1.48977752
H  -1.01739575  1.20637031 -1.83603420
H   0.24138058  0.07607834 -2.35393085
H   0.49484050  1.81463048 -2.52029343
H  -0.50102904  2.96875948 -0.19155460
H   1.19496343  3.23525765 -0.59882308
H   0.74334936  2.73817411  1.04258485
H   2.57283865  1.24175301 -1.42039827
H   3.10324680  1.45536541  2.49770132
H   1.88189767 -1.03373017 -1.62515707
H   5.33760007 -1.69633172  0.07974448
H   2.14831913 -1.28811151  1.41097147
H   1.75386733 -2.59006093  0.30390433
N  -4.81873689 -0.02019919 -0.17216233
C  -3.79599997  0.25625195 -1.22150607
C  -4.96065348  1.17892739  0.70198220
C  -6.12795524 -0.32378680 -0.81519864
C  -4.38603747 -1.18526591  0.65122029
H  -3.99672591  1.39307243  1.16085152
H  -4.12507440  1.11123055 -1.81000477
H  -2.85239026  0.47645632 -0.72616503
H  -3.69830248 -0.62263526 -1.85644169
H  -4.27033568 -2.05046445  0.00101455
H  -3.43837568 -0.94192623  1.12760083
H  -5.14627634 -1.38102805  1.40547217
H  -6.43079266  0.53394947 -1.41336065
H  -6.01119064 -1.20105312 -1.44902705
H  -6.86371730 -0.51755194 -0.03652680
H  -5.28075043  2.02014624  0.08949744
H  -5.70410551  0.96738750  1.46843927

