40
Total Energy                               R     -1.285315030554906E+03
C   0.81467027  1.45126365 -1.28395553
C  -0.48366854  1.71823332 -2.03159266
C   1.87899195  2.49513234 -1.67422445
N   0.53649556  1.68728184  0.19756664
O  -0.30861607  2.45269428  0.48668601
C   1.34499161  1.06124073  1.32325361
C   2.63137635  1.89559702  1.46819467
C   0.54410006  1.18438841  2.61428117
C   1.64663961 -0.40618056  0.95200985
C   0.41615723 -1.29160714  1.08745923
O   0.43056524 -2.39648076  1.58154138
O  -0.65413605 -0.71668479  0.57031262
C   2.24690089 -0.52464838 -0.46940517
C   2.70623469 -1.95133159 -0.70375249
O   3.64305483 -2.44287835 -0.11363542
O   1.98582247 -2.61304144 -1.60251034
C   1.29095222  0.01157090 -1.52814786
H  -0.76379752  2.77091399 -2.00233675
H  -1.29901090  1.11038534 -1.63536170
H  -0.31630851  1.43642397 -3.07260476
H   1.60623313  3.48891323 -1.31603612
H   1.89921839  2.51320388 -2.76508832
H   2.87477739  2.23689441 -1.31985013
H   2.38102015  2.95225347  1.57069600
H   3.33840683  1.77249740  0.65274879
H   3.10931057  1.56129750  2.39008623
H   0.50051158  2.22044081  2.94842776
H   1.06899158  0.60304558  3.37422644
H  -0.47163550  0.80281560  2.51741941
H   2.37876845 -0.75895512  1.67890393
H  -1.47066705 -1.24940791  0.65489861
H   3.17199279  0.05427855 -0.47169341
H   2.32752565 -3.51453707 -1.69541218
H   0.41691897 -0.63175660 -1.61656526
H   1.78442462  0.01783083 -2.50136902
B  -3.84717210 -0.40850796 -0.12273210
F  -3.40602220  0.79317252  0.45524256
F  -3.20692813 -1.50213475  0.54908932
F  -5.23424179 -0.54077905  0.02417704
F  -3.49212903 -0.44868036 -1.48009466

