39
Total Energy                               R     -1.135785299675741E+03
C  -0.16410368 -0.83787323  0.76223147
C  -0.12258587 -1.41094512  2.17596001
C   0.54418759 -1.74348587 -0.25276608
N   0.57672288  0.47927702  0.76889228
O   1.66125904  0.59475281  1.19814427
C  -0.20356914  1.63840072  0.19164966
C  -0.20086108  2.76472885  1.22308930
C   0.49487703  2.04679481 -1.11033975
C  -1.53698225  0.97693872 -0.01467320
C  -1.51947418 -0.37539058  0.30431498
C  -2.64816359 -1.16000901  0.18312321
C  -3.82988190 -0.56719285 -0.27356487
O  -4.89700195 -1.38951220 -0.36697901
C  -6.13050428 -0.85274245 -0.82278997
C  -3.85560115  0.79346270 -0.59891683
C  -2.70438490  1.56538161 -0.46707254
H   0.90036791 -1.65593111  2.46623695
H  -0.71225885 -2.32915385  2.17408308
H  -0.55758899 -0.71616300  2.89679956
H   1.56830511 -1.94661201  0.06119572
H   0.54361530 -1.29993838 -1.24910858
H  -0.01365783 -2.68118223 -0.28421912
H   0.80747873  3.15239031  1.37727288
H  -0.62026138  2.43013400  2.17371687
H  -0.82500123  3.56843472  0.82847444
H   1.49978046  2.42161045 -0.91076157
H  -0.10065147  2.84843484 -1.55126102
H   0.54077656  1.21576162 -1.81509853
H  -2.63692231 -2.21578565  0.43194178
H  -6.83427304 -1.68326983 -0.81894099
H  -6.04006663 -0.45952837 -1.83961823
H  -6.49304893 -0.06783019 -0.15253432
H  -4.76388863  1.26315166 -0.95432406
H  -2.73299206  2.62026225 -0.71948634
B   4.37881662 -0.45030092 -0.53378127
F   4.07995117 -1.64873308  0.14842102
F   5.36694242 -0.70202023 -1.51041941
F   3.21560345  0.03980276 -1.16361499
F   4.85832205  0.50666672  0.38355753

