41
Total Energy                               R     -7.903127891207002E+02
C   1.50212799 -0.22982885 -0.17238893
C   2.49979818  0.19749119 -1.27084259
C   0.45153039 -1.17483586 -0.80013857
C   2.22899118 -0.91834605  0.99902510
C   3.08044862 -2.12052245  0.59661214
N   0.68498692  0.95251470  0.23570077
O   1.16901625  1.67582306  1.34290638
C  -0.73826844  0.56772249  0.37099268
C  -2.51351570 -0.25168295  2.13750443
C   3.59405817  1.17463646 -0.85664754
C  -1.33791631  2.78381822 -0.86509957
C  -1.62540986  1.82149817  0.28010764
C  -1.05349630 -0.19903619  1.68369040
C  -2.07965266 -1.19365553 -0.94699424
O  -2.18499171 -2.35543964 -0.60660562
O  -3.12096877 -0.51683344 -1.45345630
C  -0.83702413 -0.35825827 -0.87332327
H   1.91379318  0.63475331 -2.08788481
H  -0.83032324  0.27693559 -1.76085080
H   2.51235896 -2.85172577  0.01202885
H   0.75036009 -1.53748578 -1.78643539
H   0.30042453 -2.05391622 -0.17048340
H   3.45786185 -2.63637008  1.48489148
H   1.48308219 -1.23735238  1.73244422
H   2.96782142 -0.70220400 -1.68712524
H   3.94904246 -1.82542362  0.00118647
H   4.23366442  0.76173761 -0.07052556
H  -0.46488671  0.27680560  2.47269169
H  -2.88876907  0.73185660  2.43028198
H   3.18067893  2.11614513 -0.48716205
H   2.86198853 -0.19172917  1.51300421
H   4.23876924  1.40925437 -1.70976975
H  -1.42172245  2.30450227 -1.84502240
H  -0.33772296  3.21490100 -0.78799018
H  -2.67106149  1.50634976  0.22469553
H  -2.05819794  3.60790689 -0.84849953
H  -1.52959237  2.36359186  1.22778466
H  -2.60465992 -0.90544130  3.01049641
H  -3.90391806 -1.08524184 -1.45241707
H  -3.18849736 -0.64462464  1.37178666
H  -0.67987565 -1.22323018  1.60522690

