29
Total Energy                               R     -5.376400120138633E+02
C   1.21000625 -0.93877157  0.01135086
C   1.94547868 -1.40865244 -1.24643492
C   1.95295694 -1.32390088  1.29553159
N   1.13922223  0.56068363 -0.03140129
O   2.08747717  1.25270920 -0.07726476
C  -0.26976227  1.09139119 -0.00518412
C  -0.41177710  1.93852385  1.26426609
C  -0.47082896  1.92526019 -1.27369022
C  -1.04560682 -0.20454293  0.02760484
C  -2.54125762 -0.18192634  0.04715557
N  -3.10420536 -1.52597946  0.03563880
C  -0.25078250 -1.26801666  0.03255511
H   2.98396258 -1.07286314 -1.23948329
H   1.44655435 -1.05466661 -2.15034391
H   1.93032014 -2.49990976 -1.24207356
H   2.99024697 -0.98604704  1.26034038
H   1.94002196 -2.41304484  1.36316921
H   1.45685609 -0.91186102  2.17592596
H   0.25309714  2.80331110  1.22544282
H  -0.20261348  1.34875843  2.15848408
H  -1.44197734  2.29466740  1.30962404
H   0.21248978  2.77632834 -1.28545886
H  -1.49310499  2.30522692 -1.26338877
H  -0.32682804  1.32078192 -2.17096370
H  -2.88936493  0.44253637 -0.78823524
H  -2.86947476  0.32410836  0.96116317
H  -2.96531714 -1.95195821 -0.87524081
H  -4.10691146 -1.46582645  0.17166966
H  -0.57345199 -2.30033101  0.05889563

