29
Total Energy                               R     -5.379084245217075E+02
C  -1.20483320 -0.88084737 -0.06276037
C  -1.82845169 -1.11824413  1.32294371
C  -2.01970557 -1.66271248 -1.09725514
N  -1.12130652  0.54597422 -0.47402036
O  -2.19461298  1.33232769 -0.05570439
C   0.21426605  1.05860866 -0.05742362
C   0.68389429  2.09798561 -1.07909965
C   0.24400191  1.70206221  1.34078270
C   1.04580675 -0.20960645 -0.07931696
C   2.54134506 -0.16852801 -0.06028400
N   3.14590074 -1.49749564  0.02536989
C   0.24986337 -1.27619941 -0.07030434
H  -2.85632938 -0.74787887  1.33792373
H  -1.27751576 -0.60876326  2.11591344
H  -1.83915064 -2.18911646  1.55606117
H  -3.04287616 -1.27528809 -1.14208942
H  -2.07386624 -2.72824108 -0.84569900
H  -1.57549870 -1.56759517 -2.09308681
H  -0.03176859  2.92550132 -1.11333506
H   0.74592960  1.66054294 -2.08048529
H   1.66494626  2.51313626 -0.82308867
H  -0.55106192  2.44878427  1.40193911
H   1.20570838  2.19112363  1.52683485
H   0.08175090  0.97206801  2.13699614
H   2.85960057  0.49604615  0.75855556
H   2.89715344  0.30652306 -0.98202540
H   2.88997431 -1.93271825  0.90620175
H   4.15567619 -1.40425347  0.03853968
H   0.57495025 -2.31295437 -0.05666140

