36
Total Energy                               R     -7.502153392353466E+02
C   1.27030415 -1.28027130 -0.18480323
C   2.09076634 -1.95082246  0.93588022
C   1.53258911 -1.98136136 -1.52321578
N   1.84178694  0.11555768 -0.31385225
O   2.85153752  0.24781966 -0.90422067
C  -0.22082871 -1.21513158  0.09388964
C  -2.31155320 -2.41414908  0.32646017
C  -0.90249724 -2.39177263  0.28666818
C  -0.93992290  0.00373025 -0.01371198
C  -0.27730690  1.26026007 -0.07367243
C   1.19134387  1.32236538  0.31906504
C   1.93851805  2.55683953 -0.14549458
C   1.33365430  1.14725075  1.84572746
C  -0.99358933  2.40665945 -0.30050907
C  -2.40076952  2.36138128 -0.41595845
C  -3.07028252  1.17888204 -0.26560795
C  -2.35889432 -0.02935294 -0.05286778
C  -3.02695947 -1.26459690  0.12708412
H   3.15576229 -1.88025863  0.71001772
H   2.38120443  1.02490423  2.12636517
H   2.99101004  2.49322597  0.13093241
H   2.60010631 -2.05363371 -1.72801695
H   1.85641815  2.69989886 -1.22413086
H   0.74564880  0.31567854  2.23084064
H   1.12646904 -2.98966178 -1.45416375
H   1.03286331 -1.45790153 -2.34042079
H  -2.82128294 -3.35876075  0.47942293
H   1.81272800 -3.00452619  0.95419326
H  -0.36463039 -3.32983408  0.36888625
H   1.88941009 -1.51893525  1.91416340
H   1.52050174  3.42545948  0.36119467
H  -0.50025358  3.36884827 -0.35438550
H   0.95309529  2.06719937  2.29173833
H  -2.94511510  3.28277924 -0.58986131
H  -4.15428955  1.14634308 -0.30727363
H  -4.11188483 -1.28174904  0.10762769

