36
Total Energy                               R     -7.505185075385969E+02
C  -1.27182950 -1.25005915 -0.05095590
C  -1.75978203 -2.31904348 -1.04469919
C  -1.79653828  2.45720897 -0.76759447
N  -1.77558899  0.04758177 -0.56529415
O  -3.18984774  0.06426738 -0.51541593
C  -1.22796261  1.28496467  0.04516820
C  -1.58826643  1.51957413  1.53186554
C  -1.77435926 -1.65317322  1.35454727
C   0.29096511  1.25086087 -0.06334230
C   0.96975010 -0.00425511 -0.06164623
C   0.25226601 -1.23514207 -0.03348716
C   0.96010281 -2.41378079  0.04376717
C   2.36961100 -2.43598104  0.05876269
C   3.11694932  1.19376968 -0.08932262
C   2.39641291 -0.02708397 -0.05868239
C   3.07773998 -1.26755798 -0.00533116
C   2.44653579  2.38436515 -0.09795406
C   1.03499805  2.40748158 -0.07561605
H  -2.84968432 -2.34448589 -1.06504214
H  -1.41668304 -3.31632250 -0.76472397
H  -1.39958777 -2.10312391 -2.05451277
H  -2.88277909  2.47283509 -0.68721955
H  -1.52955982  2.36750588 -1.82461183
H  -1.43129915  3.41753728 -0.40107047
H  -2.64745814  1.31747057  1.70976462
H  -1.39352977  2.56203315  1.79953907
H  -0.99759830  0.89771024  2.20524160
H  -2.85304186 -1.50243762  1.43058892
H  -1.28753755 -1.09335847  2.15270581
H  -1.56880085 -2.71308563  1.52875332
H   0.43537662 -3.36082830  0.09448883
H   2.88605378 -3.38886455  0.11482996
H   4.20247245  1.16326882 -0.09562074
H   4.16367488 -1.27176210 -0.00486937
H   2.99258406  3.32216138 -0.11435028
H   0.54574485  3.37364567 -0.05638050

