34
Total Energy                               R     -9.081650289810416E+02
C   1.51948856 -1.30267494 -0.09732858
C   0.75033159 -2.43277045 -0.76321642
C   3.02418099 -1.45855029 -0.38037072
N   1.08443770 -0.00049996 -0.75549331
O   0.59585130 -0.05523567 -1.82639828
C   1.27140192  1.37019022 -0.12182187
C   2.72420922  1.78730557 -0.41124934
C   0.31134930  2.33077062 -0.80503764
C   0.97237683  1.25770563  1.38033681
C   1.64775412  0.07881153  2.06114991
C   1.20875191 -1.22077098  1.40477374
H   1.04941556 -2.57713159 -1.80178130
H  -0.32708836 -2.26608754 -0.71721930
H   0.98154911 -3.34535732 -0.21130764
H   3.24646824 -1.29951259 -1.43703205
H   3.27497299 -2.49037317 -0.12838182
H   3.64435180 -0.80259973  0.22553634
H   2.96213724  1.66939906 -1.46988047
H   3.45461963  1.24894770  0.18758904
H   2.79269748  2.84693197 -0.15887716
H   0.57782087  2.50690516 -1.84750514
H   0.37708651  3.28011912 -0.27062799
H  -0.71830837  1.97524814 -0.74745354
H  -0.11158296  1.18408075  1.50880907
H   1.28703184  2.20605009  1.82194753
H   1.35551408  0.06050955  3.11345029
H   2.73570445  0.18343583  2.04182498
H   0.13193267 -1.35345749  1.53897911
H   1.70219034 -2.08227266  1.86078203
B  -2.95936145 -0.07234812  0.06742393
F  -2.27488634 -0.87335304  1.00490905
F  -4.31484099 -0.46002324  0.01990802
F  -2.87064910  1.28102859  0.45462575
F  -2.37925099 -0.23629798 -1.20719255

