61
Total Energy                               R     -1.577680632953233E+03
C   0.02169560 -1.79311684 -0.53600272
C  -0.89680982 -2.26781448  0.58454075
C   0.33916167 -2.95006025 -1.51279622
N  -0.80136815 -0.83159058 -1.38087791
O  -1.96895852 -0.96464055 -1.38473600
C  -0.23704737  0.21127165 -2.31316683
C  -0.40177425 -0.38204345 -3.72849691
C  -1.13108317  1.44976098 -2.14819561
C   1.20528142  0.51698955 -1.97629000
C   1.89257905 -0.08259150 -0.88635735
C   1.32253062 -1.12774629 -0.09376541
C   2.03776592 -1.60297553  0.98549921
C   1.60783561 -2.66484935  1.95263865
O   1.20815028 -2.42119854  3.06820891
O   1.81628316 -3.89645722  1.49790832
C   3.32651529 -1.10113828  1.29645584
C   3.90260700 -0.14447756  0.52097739
C   3.20173785  0.39185666 -0.58308075
C   3.79783365  1.39990335 -1.37477682
C   3.12769613  1.92339515 -2.44353362
C   1.82608556  1.48068018 -2.73559750
H  -1.85909606 -2.57692468  0.18346904
H  -1.04818385 -1.48819485  1.33176335
H  -0.47512907 -3.15263041  1.05149855
H  -0.58237839 -3.35958651 -1.92976361
H   0.84281539 -3.71871173 -0.92656408
H   1.00512254 -2.63221250 -2.31430059
H  -1.43882514 -0.67730945 -3.89394072
H   0.26020293 -1.23082351 -3.89349618
H  -0.14862991  0.40214494 -4.44129686
H  -2.16243226  1.22240390 -2.41268348
H  -0.76672088  2.21978871 -2.82605897
H  -1.08587279  1.83240679 -1.12888602
H   1.57289824 -4.54499630  2.17594613
H   3.85271694 -1.50419851  2.15472371
H   4.89716630  0.22539795  0.74518338
H   4.79447166  1.74198028 -1.11670261
H   3.58081001  2.69013605 -3.06140689
H   1.30574393  1.93659909 -3.56959821
N   0.45928122  2.66812728  1.92401662
C  -0.67808582  1.74323922  1.65234436
C   0.91736845  3.28540078  0.64602897
C   0.01531341  3.73900140  2.85984411
C   1.57908693  1.90124350  2.53753070
H   1.24283613  2.49705110 -0.02909844
H  -1.49200210  2.31425008  1.21237947
H  -0.33824334  0.97032083  0.96578984
H  -0.99567028  1.29559107  2.59219383
H   1.23629738  1.47096572  3.47681993
H   1.87065710  1.11222384  1.85057562
H   2.41481924  2.57608958  2.71356936
H  -0.79836605  4.29362794  2.39612194
H  -0.32450095  3.27569658  3.78446906
H   0.85688168  4.40055145  3.05837395
H   0.08724848  3.83603607  0.20725967
H   1.74464684  3.95951843  0.86126895
B  -4.50570099  0.05952415  0.37282461
F  -4.67067820  0.63420096 -0.90454888
F  -4.65798109 -1.33967489  0.28246761
F  -3.21951772  0.36319151  0.86339880
F  -5.47712653  0.58252991  1.25228754

