61
Total Energy                               R     -1.577870240232888E+03
C  -1.07821331 -0.19043342 -1.68039258
C  -0.64252314  1.14187179 -2.28672333
C  -1.71536125 -1.06667398 -2.77610401
N   0.16148159 -0.85947426 -1.18210320
O   1.24603802 -0.63916066 -1.80979790
C   0.15728849 -2.07455849 -0.33339474
C   0.33215261 -3.31089823 -1.23046503
C   1.36049872 -1.95435550  0.61577170
C  -1.11464821 -2.13921613  0.49222059
C  -2.09154802 -1.10426466  0.46365104
C  -2.06672227 -0.06264270 -0.52117817
C  -3.00595960  0.94115634 -0.42726008
C  -3.15328500  2.11579047 -1.34378394
O  -2.79441686  3.23749890 -1.06109554
O  -3.83053186  1.82745096 -2.45439364
C  -3.97878989  0.95731871  0.60672663
C  -4.05524749 -0.06319028  1.50172742
C  -3.12621847 -1.12921798  1.44227572
C  -3.22675978 -2.21120215  2.34690336
C  -2.32744110 -3.23943393  2.28987661
C  -1.26330001 -3.18736859  1.37200931
H   0.16278406  0.97179331 -2.99723603
H  -0.29264818  1.84025725 -1.52596119
H  -1.45580294  1.59174925 -2.84977755
H  -0.97900605 -1.28498725 -3.55363000
H  -2.55104366 -0.52792821 -3.22652662
H  -2.09732022 -2.00628277 -2.37398590
H   1.22118218 -3.19061486 -1.85242257
H  -0.53205866 -3.47244060 -1.87555434
H   0.47063542 -4.20092181 -0.61447952
H   2.28737335 -1.87871644  0.04894663
H   1.42002925 -2.83871332  1.25114319
H   1.26420803 -1.07540860  1.25683183
H  -3.93898083  2.62875092 -2.98808435
H  -4.68377254  1.78098967  0.65189950
H  -4.82544664 -0.07414738  2.26591536
H  -4.03120561 -2.20981191  3.07544824
H  -2.40689624 -4.08214261  2.96802650
H  -0.53024970 -3.98607823  1.39095007
N   1.15323454  2.33551298  1.75611570
C   1.96704248  2.08685301  0.53124354
C   1.08644874  3.79920834  2.02385988
C  -0.22292232  1.80378813  1.54907786
C   1.78456208  1.64436954  2.91534014
H   2.09779720  4.17432812  2.17085017
H   1.51038833  2.61276611 -0.30498159
H   2.97405426  2.45978263  0.70394789
H   1.98955816  1.01736922  0.34008839
H   1.82095129  0.57662399  2.70832321
H   2.79215250  2.03416091  3.04889256
H   1.18575513  1.83510495  3.80434416
H  -0.67399891  2.32720394  0.70903016
H  -0.15079796  0.73918684  1.33901363
H  -0.80599993  1.97069819  2.45353224
H   0.62436455  4.28987765  1.16912296
H   0.49024572  3.96428087  2.91975246
B   4.86914765 -0.20083454 -0.41021550
F   6.25718973  0.05926380 -0.42449458
F   4.20707024  0.75514778 -1.20676714
F   4.62972306 -1.49105207 -0.92829581
F   4.39623516 -0.13030880  0.91662152

