42
Total Energy                               R     -1.127563335804655E+03
C   2.62116238 -1.13367334  0.00850426
C   3.31464729 -2.00417396 -1.04822142
C   3.18018057 -1.45293748  1.40627323
N   2.93742094  0.27811652 -0.32527497
O   4.17242230  0.53755736 -0.50018449
C   2.07324346  1.44477024 -0.01170252
C   2.44429859  1.97698571  1.38328134
C   2.36655588  2.51009369 -1.07640571
C   0.60501159  1.05306688 -0.03791643
C   0.18095295 -0.30642142 -0.04478556
C   1.12210861 -1.37289984 -0.00662601
C   0.66797537 -2.66625628  0.07414976
C  -0.70160701 -2.96566592  0.06756715
C  -3.06909336 -2.35434921 -0.14598102
O  -3.89575703 -1.77631582 -0.82169225
O  -3.36561745 -3.45532443  0.55100581
C  -1.63848870 -1.96770111 -0.02316124
C  -1.21795455 -0.60259697 -0.05163385
C  -2.14653138  0.46257199 -0.01550448
C  -2.66172782  2.89894933  0.08070609
O  -2.32238295  4.06448219  0.12413197
O  -3.94404616  2.52907949  0.08175050
C  -1.70969104  1.76095031  0.02085214
C  -0.33210847  2.05133483  0.00618570
H   4.38752462 -1.81584676 -1.04577462
H   2.91990424 -1.79483745 -2.04512851
H   3.16310415 -3.06070106 -0.82955399
H   4.24220882 -1.20272771  1.44822981
H   3.06818487 -2.51982607  1.60925606
H   2.65179388 -0.89932141  2.18415091
H   3.51523726  2.18527517  1.43167917
H   2.18472918  1.26230588  2.16602500
H   1.90228899  2.90532241  1.57489344
H   3.42300189  2.77497084 -1.06544501
H   1.79774996  3.41724760 -0.87486897
H   2.10180037  2.14829557 -2.07263893
H   1.36657760 -3.49086192  0.14166856
H  -1.01100851 -4.00271644  0.10568111
H  -4.28782721 -3.69834333  0.38722768
H  -3.20465188  0.24897818  0.00224056
H  -4.50256417  3.31801510  0.11809087
H  -0.03055658  3.08984075  0.04761063

