42
Total Energy                               R     -1.127679081681408E+03
C   2.08772666  1.39570146  0.04626929
C   2.42262918  1.68643317  1.52718823
C   2.39433532  2.66301591 -0.76547219
N   2.85803815  0.29735758 -0.58449273
O   4.24066292  0.58579438 -0.54316450
C   2.62131740 -1.07521614 -0.07945619
C   3.22426527 -1.39231680  1.30917510
C   3.27138828 -2.02065640 -1.10698879
C   1.12694910 -1.35417482 -0.02781520
C   0.17289644 -0.29655159 -0.05467145
C   0.60400030  1.06370074 -0.04004944
C  -0.33722969  2.05934913 -0.01427540
C  -1.71657786  1.76601860 -0.01020220
C  -2.67054434  2.90177861  0.02878106
O  -3.95449567  2.53196676  0.02936347
O  -2.33645151  4.07010865  0.05717977
C  -2.15463979  0.46729478 -0.03028567
C  -1.22428026 -0.59784299 -0.05269718
C  -1.63818693 -1.96538454 -0.00156911
C  -3.06377400 -2.36357516 -0.10886507
O  -3.34084294 -3.48497350  0.56754579
O  -3.91282915 -1.78097122 -0.75423360
C  -0.69095789 -2.95506515  0.10065040
C   0.67670919 -2.64901766  0.08224838
H   3.50463627  1.70590192  1.67582201
H   1.98943726  0.94993353  2.20462428
H   2.02353084  2.66366818  1.81294535
H   3.45988444  2.88399613 -0.71679875
H   1.86690030  3.53333771 -0.37308161
H   2.11551531  2.53361274 -1.81511176
H   4.25100446 -1.02599129  1.36119852
H   2.65493647 -0.95145294  2.12691213
H   2.82379170 -1.88418369 -2.09529933
H   4.33788946 -1.80680966 -1.17904640
H   3.16507474 -3.06841825 -0.82222715
H   3.24097773 -2.47376758  1.46837192
H  -0.04180741  3.09921194  0.02195684
H  -4.51125296  3.32250456  0.05288162
H  -3.21255096  0.25323024 -0.01184531
H  -4.26403891 -3.72873218  0.41199083
H  -0.99420312 -3.99325266  0.15890568
H   1.37949987 -3.47063933  0.14393537

