51
Total Energy                               R     -3.696173349399373E+03
C   0.31849939 -0.47954830 -1.14146366
C   0.51156923  0.60037874 -2.20534721
C   1.30248753 -1.62770454 -1.40003632
N   0.59169735  0.12878628  0.19362035
O   1.63580474  0.85640439  0.28383845
C   0.02134216 -0.37587411  1.47662333
C   0.91072217 -1.49562973  2.03248463
C  -0.01388321  0.78243757  2.47279190
C  -1.42038255 -0.86048801  1.25214599
C  -1.53974621 -1.74120592  0.02784200
Br  -3.40996555 -2.36491956 -0.15964478
C  -1.13920412 -0.96491616 -1.20789122
H   1.55703109  0.89926700 -2.29119388
H  -0.09182790  1.48368632 -1.98396666
H   0.19285306  0.20214145 -3.17175131
H   2.33179575 -1.28191955 -1.29124280
H   1.17133765 -1.98271557 -2.42541324
H   1.14823483 -2.47459659 -0.73013555
H   1.94022333 -1.14762863  2.14043952
H   0.91114433 -2.38749364  1.40470249
H   0.54524841 -1.78143339  3.02214159
H   0.99010643  1.09211427  2.76560624
H  -0.54385671  0.45648673  3.37110617
H  -0.54224480  1.64317929  2.05742764
H  -2.07299537  0.00854501  1.12935414
H  -1.73559575 -1.38944569  2.15392323
H  -0.97860595 -2.66773305  0.13258648
H  -1.79815275 -0.09838798 -1.30902687
H  -1.24396991 -1.57254183 -2.10911953
N   5.31615956  0.18661845 -0.09347060
C   4.54098401 -0.88839823  0.58986685
C   5.17954098  1.45635731  0.67580487
C   6.75328559 -0.20100947 -0.16365802
C   4.78376239  0.38351210 -1.47280108
H   4.12546395  1.72303146  0.72554033
H   4.93566656 -1.01668752  1.59642655
H   3.49742800 -0.58442676  0.62803233
H   4.64862198 -1.81164108  0.02319728
H   4.87434925 -0.55319663 -2.02016572
H   3.73956465  0.68169744 -1.40347375
H   5.36607981  1.16282476 -1.96181628
H   7.12563298 -0.34616505  0.84897147
H   6.83855080 -1.12577382 -0.73139724
H   7.30726078  0.59577917 -0.65691160
H   5.57571500  1.30143478  1.67791211
H   5.74217695  2.23633424  0.16569862
B  -2.97185062  2.80160701 -0.11566919
F  -3.16498324  1.88562468 -1.17071064
F  -3.78905041  3.93349166 -0.32348001
F  -3.31895092  2.19138395  1.10738039
F  -1.62084759  3.20204177 -0.07779715

