29
Total Energy                               R     -3.057288211839827E+03
C  -1.20915670  1.31548615 -0.00427911
C  -1.82345526  2.35366739 -0.94270605
C  -1.48526069  1.71678570  1.45120013
N  -1.85139106  0.00000000 -0.29175893
O  -3.12125781  0.00000000 -0.38279112
C  -1.20915669 -1.31548615 -0.00427911
C  -1.48526066 -1.71678571  1.45120013
C  -1.82345525 -2.35366739 -0.94270605
C   0.30063892 -1.24019987 -0.29035997
C   0.93135520 -0.00000000  0.30597597
Br   2.87963533 -0.00000000 -0.05663315
C   0.30063892  1.24019987 -0.29035996
H  -2.87571935  2.52381960 -0.71303303
H  -1.74031057  2.03554556 -1.98530188
H  -1.28839533  3.30008672 -0.82806152
H  -2.55718208  1.66877379  1.65716089
H  -1.15127560  2.74510193  1.61399599
H  -0.96803002  1.07868061  2.16950447
H  -2.55718204 -1.66877374  1.65716092
H  -0.96802994 -1.07868066  2.16950447
H  -1.15127563 -2.74510197  1.61399595
H  -2.87571934 -2.52381962 -0.71303301
H  -1.28839532 -3.30008671 -0.82806154
H  -1.74031059 -2.03554555 -1.98530188
H   0.45928874 -1.23200855 -1.37364997
H   0.76074846 -2.14845920  0.10511038
H   0.88298812 -0.00000000  1.39323512
H   0.45928873  1.23200856 -1.37364996
H   0.76074844  2.14845920  0.10511039

