36
Total Energy                               R     -9.737496656922378E+02
C   1.26763040  0.10514624  1.40239704
C  -1.56259028 -1.23467004 -2.19118763
C   2.46435467  0.12466720  0.69222662
N  -2.10722932 -0.28661904  0.00000000
O   2.27573032 -0.69744097 -3.35874969
C   1.26763040  0.10514624 -1.40239704
C   1.34542794  0.13316333 -2.89459377
C   2.46435467  0.12466720 -0.69222662
C   0.06301132  0.08257244 -0.69709573
C   0.06301132  0.08257244  0.69709573
C  -1.56259028 -1.23467004  2.19118763
C   1.34542794  0.13316333  2.89459377
O   2.27573032 -0.69744097  3.35874969
O   0.67271644  0.84155782  3.60841829
C  -1.33252469 -0.04181309  1.26629483
C  -1.91487665  1.26168848  1.84169638
C  -1.33252469 -0.04181309 -1.26629483
C  -1.91487665  1.26168848 -1.84169638
O   0.67271644  0.84155782 -3.60841829
O  -3.23487311 -0.60248705  0.00000000
H  -2.62750654 -1.34576737 -2.39813825
H  -1.17262160 -2.15333191 -1.75120357
H  -1.17262160 -2.15333191  1.75120357
H   3.40623428  0.14273752  1.22590726
H   2.33510513 -0.61591212  4.32198582
H  -1.39909385  1.46412453  2.77751761
H   2.33510513 -0.61591212 -4.32198582
H  -1.39909385  1.46412453 -2.77751761
H  -1.05434491 -1.04586159 -3.13582954
H   3.40623428  0.14273752 -1.22590726
H  -1.76261043  2.10040806  1.16206976
H  -1.76261043  2.10040806 -1.16206976
H  -1.05434491 -1.04586159  3.13582954
H  -2.62750654 -1.34576737  2.39813825
H  -2.98053737  1.12925560  2.03543947
H  -2.98053737  1.12925560 -2.03543947

