33
Total Energy                               R     -9.821855124949971E+02
C   1.33770669 -1.32018407 -0.27538990
C   0.68949504 -2.44845353 -1.06367712
C   2.86993803 -1.49118919 -0.27415994
N   1.05922580 -0.01263158 -1.00765919
O   0.86168797 -0.06045832 -2.16676908
C   1.12386218  1.36144895 -0.34835414
C   2.61159699  1.76385620 -0.34052031
C   0.32555983  2.33084204 -1.20651122
C   0.55998189  1.27966634  1.07622237
C   0.99349260  0.06647680  1.85875726
O   1.40405699  0.13406529  2.99369508
C   0.77153561 -1.24435645  1.14862359
H   1.17980508 -2.61019718 -2.02389114
H  -0.37404181 -2.26567667 -1.21879350
H   0.80091817 -3.35632908 -0.46821747
H   3.28666601 -1.35023520 -1.27302052
H   3.05780397 -2.52081524  0.03528017
H   3.37052183 -0.83009981  0.43050470
H   3.06472659  1.63495064 -1.32517587
H   3.19403833  1.22629214  0.40529584
H   2.63571452  2.82503089 -0.08715475
H   0.80425598  2.51103283 -2.16936018
H   0.28577724  3.27716152 -0.66430945
H  -0.69410905  1.97867777 -1.36251368
H  -0.53303383  1.25402047  1.03011228
H   0.85355552  2.19001494  1.59955904
H  -0.31242121 -1.39392669  1.10916741
H   1.20788306 -2.06249927  1.72186636
B  -2.81400562 -0.06782369  0.03312350
F  -2.62299439 -0.82669640  1.20486922
F  -3.95939380 -0.51731767 -0.64594330
F  -2.95727689  1.29209453  0.36943980
F  -1.68228888 -0.22112054 -0.80799949

