29
Total Energy                               R     -6.327855166977878E+02
C   1.54268034 -0.79478567 -0.00194884
C   2.52682256 -1.12856098  1.10796131
C  -0.55620458  1.43183482  1.43269261
N   1.24487360  0.67829909  0.03301016
O   2.08294778  1.49932274  0.10035978
C  -0.80270777 -0.34680676 -0.43217408
C  -0.44104405  2.15521136 -0.99711489
C   2.14216212 -1.04726450 -1.39657306
C  -2.26405071 -0.52675064 -0.09725410
C   0.14648556 -1.39377763  0.16283695
O  -3.07685028  0.36163910 -0.04576856
O  -2.57464588 -1.81081098  0.07605775
C  -0.22183433  1.01787111 -0.01386100
H   3.07960417 -0.50161494 -1.51645584
H   2.34326266 -2.11754335 -1.46364464
H   2.66737548 -2.21105108  1.10530666
H   3.49510575 -0.65463738  0.94026307
H   2.13329651 -0.83059317  2.08196431
H   0.06535286  2.27772571  1.73044924
H   0.04642374  3.07067864 -0.65895642
H  -1.59908372  1.74506069  1.45158746
H  -1.51461743  2.33802985 -1.05590374
H  -0.07581851  1.88869190 -1.99120949
H  -0.76154640 -0.40669347 -1.52667189
H   1.45609560 -0.76881820 -2.19847203
H  -3.52951757 -1.88925418  0.23094996
H   0.07951177 -2.34794415 -0.35550706
H  -0.06719855 -1.55720965  1.22072420
H  -0.41782938  0.61404541  2.14192379

