29
Total Energy                               R     -6.330568100991197E+02
C  -0.80816673 -0.39321287 -0.56413072
C  -2.18279949 -0.72279217 -0.05651513
C   0.25388350 -1.43209782 -0.19989882
N   1.19118307  0.75927073 -0.37644150
O  -2.45773057 -1.50044121  0.82826034
C   1.58932135 -0.65601526 -0.13868253
C   2.53278857 -1.08010235 -1.26789315
C  -0.78537566  2.16323752 -0.68196877
C  -0.22889806  0.92528865  0.01281729
C  -0.46920041  1.04962026  1.52625176
O  -3.13952808 -0.03290836 -0.70176437
O   2.04168614  1.69454291  0.20972529
C   2.30228786 -0.89475130  1.19797244
H  -3.99713161 -0.25791820 -0.31094004
H  -1.85387782  2.29113786 -0.48752633
H  -1.47848760  1.41677573  1.74147143
H   0.27697124 -2.25262145 -0.92267871
H  -0.34434687  0.10240139  2.05532302
H   0.01994306 -1.86935562  0.77348332
H   2.88480485 -2.11006581 -1.13536841
H   2.50905817 -1.96440685  1.32126333
H   3.40841551 -0.42338011 -1.29496861
H  -0.87923659 -0.27100534 -1.64833378
H   2.02928074 -1.01388141 -2.23806606
H  -0.63663861  2.09805508 -1.76464623
H   3.24890253 -0.35189995  1.23157073
H  -0.26062765  3.05197474 -0.32059765
H   0.25418045  1.76286185  1.92824959
H   1.70204341 -0.56816165  2.04937048

