33
Total Energy                               R     -9.821774822361451E+02
C   1.17078500 -1.36295025 -0.29927980
C   0.39524072 -2.38608051 -1.11429290
C   2.67045147 -1.71827416 -0.29372642
N   1.06351095 -0.01820577 -1.00595151
O   0.87884077 -0.01845465 -2.16720957
C   1.29315349  1.32196918 -0.31802781
C   2.81787473  1.53808616 -0.29850759
C   0.62385265  2.39976777 -1.15556639
C   0.71328244  1.28125055  1.10104144
C   0.98053102  0.01033322  1.85759845
O   1.37961412  0.00400133  3.00422491
C   0.61009192 -1.24884138  1.12453560
H   0.87134580 -2.58132035 -2.07497235
H  -0.63595899 -2.06942150 -1.27103073
H   0.39029828 -3.31361576 -0.53948229
H   3.10340956 -1.60843048 -1.28916592
H   2.73128818 -2.76771903 -0.00096106
H   3.23974402 -1.13310670  0.42568914
H   3.25070545  1.37217917 -1.28611606
H   3.32423085  0.91510975  0.43647136
H   2.97124302  2.58228441 -0.02154712
H   1.11997354  2.52884418 -2.11737032
H   0.70818130  3.33421947 -0.59856023
H  -0.43294183  2.18191822 -1.31201165
H  -0.37590023  1.38282668  1.04857720
H   1.11001986  2.13756980  1.64629026
H  -0.48400825 -1.26953462  1.08262393
H   0.94289319 -2.12359474  1.68334827
B  -2.81058386  0.04044740  0.02405883
F  -1.71669929  0.11927476 -0.87142955
F  -2.83289180 -1.23814778  0.61539703
F  -2.66011515  1.02079263  1.02554407
F  -4.00644942  0.26042016 -0.68164336

