60
Total Energy                               R     -1.593809229809829E+03
C   0.46629865 -0.73378693  0.62753001
C   0.15902660 -1.66186670  1.81244191
C  -0.39596490 -1.12438797 -0.58522902
N   0.09394904  0.63558292  1.05858649
O  -1.08659497  0.76673658  1.51315383
C   0.77008196  1.88817774  0.64027844
C   0.05892794  2.44374446 -0.60542367
C   0.62564130  2.87132898  1.81001325
C   2.23671860  1.64287657  0.32564609
C   2.76724176  0.33264633  0.15619585
C   1.93812902 -0.81972860  0.26392491
C   2.46287716 -2.06391969  0.00247464
C   3.81321762 -2.23313179 -0.32396600
C   4.63057411 -1.14050888 -0.37184895
N   6.04583519 -1.40210305 -0.64144564
O   6.31758906 -2.23217519 -1.49090814
O   6.88217887 -0.80494690  0.01407604
C   4.15509080  0.18256950 -0.16653668
C   4.95934708  1.33409061 -0.34008074
C   4.41128604  2.57787343 -0.19668692
C   3.05576578  2.73031378  0.13914513
H  -0.88677233 -1.55721267  2.09902321
H   0.78842014 -1.41450185  2.67119944
H   0.33220421 -2.70333801  1.54058941
H  -1.45120412 -1.05420970 -0.32129005
H  -0.18834680 -2.15638370 -0.87475377
H  -0.19411820 -0.47924223 -1.44279081
H  -1.00027616  2.59174490 -0.39129128
H   0.15999431  1.76785883 -1.45707099
H   0.49287332  3.40779037 -0.87980851
H  -0.42789431  3.01146141  2.04920081
H   1.04400225  3.84343633  1.54973991
H   1.14149750  2.49552867  2.69729080
H   1.83897008 -2.94716089  0.05052865
H   4.20873443 -3.22478106 -0.50667224
H   6.00437653  1.23693431 -0.59988505
H   5.02510962  3.45961148 -0.34612874
H   2.66053320  3.73481774  0.23188836
N  -4.44069347  1.91136777 -0.73863853
C  -3.34075979  0.93465715 -0.98690609
C  -5.27196002  1.43833507  0.40577406
C  -3.85829381  3.24395241 -0.41299199
C  -5.29017127  2.02581954 -1.95740639
H  -5.68620942  0.46424222  0.15494360
H  -2.73109434  0.86370791 -0.08733293
H  -3.78190352 -0.03052002 -1.22613987
H  -2.74173629  1.29125060 -1.82326599
H  -4.66972111  2.37221624 -2.78237387
H  -5.70692809  1.04625084 -2.18557203
H  -6.08941335  2.73888834 -1.76200583
H  -3.24243287  3.14720784  0.47930756
H  -3.25329008  3.57667170 -1.25470495
H  -4.67205878  3.94507984 -0.23465308
H  -4.63858261  1.36034735  1.28755695
H  -6.07032424  2.15850171  0.57743180
B  -4.51455659 -2.58487303  0.08239144
F  -3.53337805 -2.77325523 -0.91289562
F  -4.91279600 -3.83833871  0.59300209
F  -3.98781050 -1.79841402  1.12644693
F  -5.63369240 -1.93299344 -0.48245283

