60
Total Energy                               R     -1.593620296443508E+03
C   0.24261718 -1.79237132 -1.51252438
C   1.04073537 -0.63242606 -2.13453339
C   0.17306824 -2.98902880 -2.47972606
N   1.06947150 -2.27400069 -0.33929952
O   2.21990104 -2.45763473 -0.51845603
C   0.47414013 -2.55993618  1.01115021
C  -0.33452404 -3.86653360  0.82772757
C   1.60196896 -2.77351637  2.00212419
C  -0.46404103 -1.40388091  1.32720885
C  -1.34177746 -0.94532681  0.30844335
C  -1.11171353 -1.28802435 -1.04996585
C  -2.05655068 -0.99640382 -2.00042928
C  -3.23365433 -0.31925431 -1.64945762
C  -3.39613995  0.12665793 -0.36918728
N  -4.60684919  0.91230376 -0.10710407
O  -5.64673619  0.52189864 -0.60526798
O  -4.51107786  1.91814451  0.57103254
C  -2.46018660 -0.14162732  0.66492767
C  -2.59122100  0.28555646  2.01066567
C  -1.66034710 -0.07951246  2.94246517
C  -0.59995955 -0.94644460  2.61011942
H   1.99830891 -0.98461574 -2.51757150
H   1.19553015  0.16717008 -1.40758238
H   0.45940860 -0.23991540 -2.96799790
H   1.17752262 -3.35643384 -2.69421359
H  -0.25917837 -2.63942604 -3.41659186
H  -0.44182500 -3.79746414 -2.08552116
H   0.31608447 -4.67477502  0.48858870
H  -1.17259088 -3.75330153  0.14106765
H  -0.73026072 -4.11577001  1.81347642
H   2.25334908 -3.58536790  1.67944402
H   1.16799874 -3.06753892  2.95691419
H   2.19406623 -1.86881260  2.14758058
H  -1.89793165 -1.23992231 -3.04342049
H  -3.97781149 -0.10173090 -2.40523693
H  -3.42546165  0.90593445  2.30643419
H  -1.75854936  0.26535584  3.96550410
H   0.06710532 -1.27587968  3.39606032
N   4.45974260  1.11194671  0.05621342
C   4.86527029  0.09142985 -0.95173772
C   3.51182156  0.50010446  1.03086586
C   5.66675110  1.60274799  0.78099914
C   3.79145403  2.25283789 -0.63489136
H   2.61765871  0.19020514  0.49517655
H   5.33666824 -0.74364257 -0.43623634
H   3.97762544 -0.24348960 -1.48455884
H   5.56641244  0.54873209 -1.64776315
H   4.49726251  2.69486734 -1.33609682
H   2.91850662  1.87549790 -1.16335530
H   3.49184585  2.98428003  0.11242781
H   6.13831118  0.75934828  1.28256699
H   6.35226917  2.04289314  0.05889749
H   5.35635406  2.34948242  1.50992551
H   3.99778827 -0.35271361  1.50128004
H   3.24916515  1.24525731  1.77901431
B  -0.15669316  2.85485827 -0.20158001
F  -0.87181594  2.28202447 -1.27177626
F   0.72472588  3.83747393 -0.70571809
F  -1.05360787  3.45414409  0.70557976
F   0.58495497  1.85704447  0.46381298

