60
Total Energy                               R     -1.593626040906272E+03
C   0.82975844 -1.65536048 -1.62533346
C   1.16272895 -0.33472196 -2.33843061
C   1.03899288 -2.85185291 -2.57031780
N   1.87084633 -1.82080733 -0.53567126
O   2.99886623 -1.65928804 -0.82669237
C   1.51227217 -2.24018077  0.86350886
C   1.10495166 -3.72983529  0.75263770
C   2.73938237 -2.10358716  1.74411406
C   0.30856560 -1.40189552  1.26945804
C  -0.75682883 -1.25550287  0.34001813
C  -0.56369192 -1.56406055 -1.03253761
C  -1.63784199 -1.60593923 -1.88454268
C  -2.92379278 -1.28312855 -1.42517273
C  -3.08840089 -0.84883252 -0.14066537
N  -4.43761063 -0.40527640  0.22559823
O  -5.37462755 -1.08594475 -0.14513871
O  -4.55262840  0.63066536  0.85600243
C  -2.02486014 -0.80252595  0.80020241
C  -2.15204071 -0.38844598  2.15048389
C  -1.07133962 -0.42997346  2.98650932
C   0.16269190 -0.95838658  2.55570979
H   2.16352552 -0.36717583 -2.76856675
H   1.08315734  0.50748049 -1.65201565
H   0.44210843 -0.20638342 -3.14583427
H   2.07809774 -2.88963561 -2.90000680
H   0.41611209 -2.69763507 -3.45094713
H   0.76396783 -3.79669310 -2.10310670
H   1.93036216 -4.32223830  0.35398416
H   0.21224591 -3.88727026  0.14895501
H   0.89055056 -4.06013504  1.77010981
H   3.55950060 -2.70606031  1.35341134
H   2.49658173 -2.49326588  2.73221354
H   3.06165508 -1.06709245  1.83230985
H  -1.51107500 -1.83931661 -2.93424626
H  -3.76525546 -1.31540125 -2.10603818
H  -3.10286020 -0.03645569  2.52604435
H  -1.17176460 -0.09564117  4.01282532
H   0.96883611 -1.04618413  3.27243662
N  -1.16519658  3.14635836 -0.43285704
C  -1.54246037  2.31354508 -1.60928409
C  -2.29329725  3.18161720  0.53918852
C   0.03432074  2.54866655  0.21934439
C  -0.84717114  4.53138512 -0.88106185
H  -3.16519255  3.61344623  0.05057317
H  -1.73988906  1.30020041 -1.26598368
H  -2.43439909  2.73630348 -2.06860390
H  -0.71596351  2.31669458 -2.31765200
H  -0.02149229  4.48756472 -1.58934814
H  -1.72948382  4.95706927 -1.35590085
H  -0.56482887  5.12245175 -0.01146571
H  -0.20559262  1.53138690  0.52292894
H   0.84998477  2.54695398 -0.49857218
H   0.29762218  3.14935507  1.08788174
H  -2.50889365  2.16464533  0.85939425
H  -1.99828582  3.79070732  1.39215363
B   3.54068762  1.71662545  0.24559114
F   4.76353797  1.05082381  0.45430803
F   3.43952686  2.11063749 -1.10450480
F   2.47172429  0.84729863  0.56056957
F   3.47148194  2.85434109  1.07510241

