64
Total Energy                               R     -1.766441904264997E+03
C  -0.27791056 -0.26340067 -0.36847124
C  -0.09191026 -1.04264709 -1.68386903
C   0.42464581 -0.98098088  0.79864968
N   0.42248640  1.03721362 -0.57313345
O   1.64517385  0.96328866 -0.91150053
C  -0.09262011  2.31331467 -0.02499910
C  -0.05494215  2.26407165  1.51436504
C   0.79483906  3.45214492 -0.51002167
C  -1.52961015  2.42400675 -0.49565150
C  -2.33992473  1.25306381 -0.45237398
C  -1.78503278 -0.03769319 -0.17417947
C  -2.64866919 -1.07729275  0.11984868
C  -2.14596919 -2.42587721  0.57110085
O  -1.82241282 -3.33183133 -0.16151042
O  -2.07617544 -2.49445914  1.89847139
C  -4.06251818 -0.90918782  0.00102077
C  -4.99053123 -2.03316396  0.29529406
O  -4.64565319 -3.12897307  0.68602802
O  -6.27297487 -1.72690864  0.09008772
C  -4.57738293  0.28646371 -0.42325966
C  -3.73783906  1.39491946 -0.63919025
C  -4.28764249  2.65149958 -0.99583779
C  -3.47501225  3.74209880 -1.11275116
C  -2.09680618  3.62793388 -0.83172285
H   0.96627894 -1.22641180 -1.86762473
H  -0.50314491 -0.47695402 -2.52335495
H  -0.60033061 -2.00286908 -1.63161838
H   1.49333485 -0.77859750  0.74199741
H   0.30448817 -2.06162845  0.73353420
H   0.05975123 -0.64145204  1.76732071
H   0.96207494  2.05955351  1.85529208
H  -0.72264591  1.50232522  1.92062016
H  -0.37077272  3.23260482  1.90883297
H   1.81821762  3.30571808 -0.16738204
H   0.44341205  4.39382483 -0.08798863
H   0.79518744  3.53383877 -1.59898344
H  -1.75932077 -3.37041665  2.16401158
H  -6.81989794 -2.49514913  0.30423303
H  -5.64406432  0.40673970 -0.56416203
H  -5.35813749  2.72782217 -1.15516908
H  -3.88404793  4.70871358 -1.38495597
H  -1.49376548  4.52666123 -0.86324788
N   4.55357969 -1.17206668 -2.10154064
C   5.07472152 -0.02336005 -1.30574987
C   5.69268703 -1.91135749 -2.71500322
C   3.78956219 -2.08886557 -1.20834647
C   3.65462276 -0.66303849 -3.17687070
H   6.23776083 -1.23280697 -3.36903599
H   5.72651315 -0.40758718 -0.52329616
H   5.63206026  0.63478060 -1.97041878
H   4.23272679  0.50806329 -0.86770626
H   2.83715369 -0.11169317 -2.71646708
H   4.22923936 -0.00845987 -3.83015198
H   3.27026917 -1.51147333 -3.74057126
H   4.46292698 -2.47433493 -0.44537483
H   2.98069451 -1.52827059 -0.74699337
H   3.39094626 -2.90639231 -1.80673312
H   6.34417694 -2.27217701 -1.92108818
H   5.29819611 -2.74921202 -3.28728822
B   3.62735186  0.38264246  2.64430902
F   2.45210916  0.25898302  3.41410662
F   3.49301852  1.46098763  1.74656028
F   4.72528449  0.62076255  3.50003125
F   3.84706507 -0.80949373  1.92490715

