64
Total Energy                               R     -1.766555499839664E+03
C  -0.24568306  0.20276387 -0.63325265
C   0.04218884 -0.46371086 -1.99465085
C   0.62239061 -0.44687199  0.46991432
N   0.08006799  1.64333991 -0.87624955
O   1.47721445  1.79314874 -0.97540551
C  -0.49159679  2.60769656  0.08959016
C  -0.12804280  2.36165333  1.57001533
C   0.00663741  4.00499741 -0.28741739
C  -1.99743640  2.49784786 -0.07522753
C  -2.56788439  1.19999453 -0.23864920
C  -1.74252541  0.03351930 -0.33252764
C  -2.34606006 -1.20707479 -0.19133272
C  -1.54865662 -2.47835303 -0.03032114
O  -1.15441181 -3.18937161 -0.92622143
O  -1.32128086 -2.74297193  1.25638503
C  -3.76974216 -1.33005254 -0.14804207
C  -4.42256460 -2.66051648 -0.03697765
O  -3.83822408 -3.70656023  0.15822434
O  -5.75151809 -2.61313179 -0.16885575
C  -4.55753480 -0.21191723 -0.22186098
C  -3.98143904  1.07118106 -0.22798556
C  -4.80723574  2.22186931 -0.17156442
C  -4.23829291  3.45763322 -0.06630442
C  -2.83402420  3.58513020  0.00704224
H   1.06662338 -0.23806150 -2.29026193
H  -0.63085875 -0.06644091 -2.75957185
H  -0.07033555 -1.54439717 -1.96560142
H   1.53798959  0.12970577  0.57610493
H   0.90992432 -1.46742967  0.20767003
H   0.12465952 -0.47700946  1.43783468
H   0.95396421  2.25450836  1.68243862
H  -0.60625888  1.46764896  1.97367994
H  -0.44944333  3.21064321  2.18043429
H   1.08775908  4.05810326 -0.16960684
H  -0.42719853  4.76598430  0.36365656
H  -0.24142529  4.25335651 -1.32347063
H  -0.83251980 -3.57560142  1.33252595
H  -6.10856550 -3.50640217 -0.06970988
H  -5.63665711 -0.29903268 -0.22551251
H  -5.88494754  2.09575697 -0.18933696
H  -4.85692507  4.34710914 -0.01237738
H  -2.42464938  4.57803296  0.14343744
N   4.64137459 -0.48540803 -2.13204488
C   5.24391789  0.64357320 -1.36664466
C   5.71925215 -1.38983903 -2.62041373
C   3.71775259 -1.24619411 -1.24190305
C   3.88062349  0.05718955 -3.29387083
H   6.38578852 -0.82439602 -3.26938633
H   5.79341597  0.23766362 -0.51947323
H   5.91754184  1.18940359 -2.02541309
H   4.44383261  1.29581412 -1.02103841
H   3.10951816  0.72950204 -2.92132441
H   4.57120026  0.59705562 -3.93980493
H   3.42988282 -0.77266276 -3.83539180
H   4.29360242 -1.65673315 -0.41473212
H   2.95922458 -0.56169468 -0.87395610
H   3.25838787 -2.04798412 -1.81790145
H   6.26774750 -1.77474987 -1.76239874
H   5.26390806 -2.20973515 -3.17308625
B   3.43964925 -0.33341271  2.85689731
F   2.27248070  0.12165088  3.50473267
F   3.80989727  0.58181623  1.85118222
F   4.48669846 -0.43921292  3.79969245
F   3.20069790 -1.59963626  2.28399725

