35
Total Energy                               R     -1.021266091576111E+03
C  -1.53432504 -0.37042349 -1.26799009
C  -0.53472548 -1.29739590 -1.97172011
C  -2.77963265 -0.11459959 -2.11507166
N  -1.96192246 -1.07435445 -0.00408812
O  -2.58126803 -2.07214549 -0.00978332
C  -1.51766464 -0.39604009  1.26800335
C  -0.51383176 -1.33833200  1.94427244
C  -2.75415817 -0.15300960  2.13234545
C  -0.89369604  0.84866966  0.70173497
C  -0.90548506  0.86412545 -0.68510765
C  -0.37060158  1.93162483 -1.39057065
C   0.18177897  2.98819442 -0.67465366
C   0.19515856  2.97187520  0.71994351
C  -0.34506320  1.89949148  1.42146654
H  -1.02744054 -2.21388090 -2.30152157
H   0.30933839 -1.53667762 -1.32433087
H  -0.16410455 -0.76061222 -2.84676007
H  -3.22994518 -1.05414215 -2.43948572
H  -2.46137272  0.44178827 -2.99832605
H  -3.51348142  0.48178590 -1.56991866
H  -1.00617676 -2.25903668  2.26264472
H  -0.13221124 -0.81888315  2.82502547
H   0.32248715 -1.56874960  1.28375359
H  -3.20377633 -1.09766706  2.44268027
H  -3.49157441  0.45577915  1.60598808
H  -2.42531482  0.38524841  3.02292382
H  -0.37825739  1.93938553 -2.47546281
H   0.60915876  3.83114580 -1.20693971
H   0.63298889  3.80216402  1.26350727
H  -0.33337779  1.88266152  2.50620920
B   3.03592292 -0.60272976 -0.01073148
F   2.34589982 -1.83586724 -0.03896541
F   2.67872835  0.16173544 -1.13948256
F   2.69752420  0.09794009  1.16428408
F   4.42568355 -0.84648581 -0.02865397

