47
Total Energy                               R     -8.111479519477095E+02
C   0.89639634 -1.21664584 -0.50598198
C   0.21208142 -2.32111556  0.30277044
C   1.21233043 -1.75872614 -1.90998903
N   0.04065661 -0.00280124 -0.48318122
O  -0.98377603 -0.00560810 -1.42114309
C   0.89341227  1.21315888 -0.50992830
C   0.20643628  2.31903029  0.29464712
C   1.20839360  1.75101875 -1.91583194
C   2.14561908  0.69713279  0.15655003
C   2.14747385 -0.69531430  0.15854316
C   3.21553340 -1.39958630  0.69843334
C   4.28988600 -0.69163467  1.23902744
C   4.28802288  0.70239988  1.23698479
C   3.21176672  1.40586531  0.69435669
H  -0.75586662 -2.56400846 -0.14642332
H   0.03911103 -1.99931453  1.33374876
H   0.81304615 -3.23645743  0.32365324
H   0.28096835 -1.99136670 -2.43066749
H   1.81259819 -2.67172622 -1.83757842
H   1.76820583 -1.04071228 -2.51610340
H  -0.75841849  2.56394147 -0.15983510
H   0.80900785  3.23324316  0.31857143
H   0.02722054  1.99769635  1.32473646
H   0.27605716  1.97290946 -2.43948146
H   1.77171231  1.03474873 -2.51716376
H   1.80081420  2.66937108 -1.84666917
H   3.22002025 -2.48629701  0.70297553
H   5.13172293 -1.22894200  1.66536592
H   5.12840419  1.24324301  1.66172609
H   3.21333426  2.49259193  0.69570387
N  -3.74549648  0.00096077  0.49279786
C  -5.03532733  0.00495712  1.22994443
C  -3.65829042 -1.19894402 -0.39064419
C  -3.62860748  1.22723698 -0.35003984
C  -2.60598409 -0.02925684  1.45540729
H  -3.71922727 -2.09186718  0.23108738
H  -5.85292078  0.02639831  0.51055940
H  -5.09622065 -0.89665582  1.83814668
H  -5.07414155  0.88803559  1.86652453
H  -2.67263847  0.84933939  2.09693670
H  -2.68808112 -0.93334852  2.05864986
H  -1.67265288 -0.02467225  0.88583473
H  -4.46749246  1.24891705 -1.04565688
H  -3.66280535  2.09992328  0.30176469
H  -2.67161466  1.15171135 -0.87814678
H  -4.49399548 -1.17443936 -1.08997112
H  -2.69691793 -1.13197234 -0.91195679

