46
Total Energy                               R     -1.118991230708315E+03
C   0.66091537  1.79262383  1.24692074
C   0.23886992  0.42078148  1.79265211
C   1.46431834  2.60098421  2.24725504
N   1.49121478  1.49842060  0.04070216
O   2.59274375  1.10290068  0.06357987
C   0.72233766  1.79325952 -1.24163811
C   1.35526151  3.05402949 -1.82201079
C   0.77266887  0.59657778 -2.16174556
O  -0.56891562  1.99000324 -0.74319987
C  -0.49283628  2.54125024  0.57288028
H   1.11474690 -0.13432049  2.12800776
H  -0.29544683 -0.16400030  1.04478213
H  -0.42288472  0.60615924  2.63979241
H   2.29997609  2.01828548  2.63638748
H   0.80056926  2.85342111  3.07615232
H   1.83463199  3.52494026  1.79978772
H   2.38718815  2.85509183 -2.11309254
H   1.33180779  3.88708287 -1.11785805
H   0.77617347  3.31894317 -2.70784905
H   1.79287033  0.43248292 -2.50815052
H   0.14090599  0.81767048 -3.02319143
H   0.40355021 -0.29768124 -1.66003590
H  -1.44337339  2.35281312  1.06522760
H  -0.30098090  3.61637345  0.53302139
N  -3.62041007 -0.76664638 -0.01476093
C  -4.42526374 -2.01687879 -0.10987751
C  -3.24929167 -0.52143609  1.40762960
C  -2.38486406 -0.90499214 -0.83811750
C  -4.42019868  0.38541387 -0.51907348
H  -4.16119986 -0.45549320  1.99870876
H  -3.82854049 -2.84467234  0.26954872
H  -5.32813140 -1.89880027  0.48688239
H  -4.68347385 -2.18652066 -1.15369948
H  -4.69613745  0.19353789 -1.55446808
H  -5.31316717  0.48822729  0.09488260
H  -3.81168135  1.28597431 -0.45274386
H  -1.80627930 -1.74606752 -0.46112318
H  -2.67478326 -1.08184784 -1.87275917
H  -1.81316455  0.01725155 -0.76090678
H  -2.63246157 -1.34712637  1.75786621
H  -2.69669558  0.41348776  1.46753071
B   2.20205389 -2.55608072  0.00451770
F   0.81445458 -2.35217703 -0.14925023
F   2.63663953 -1.96572975  1.20945566
F   2.46978621 -3.94086231  0.03775558
F   2.88778086 -1.97013536 -1.07897947

