34
Total Energy                               R     -9.622928958216539E+02
C  -1.73118558 -1.11386584 -0.73265431
C  -1.05639206 -2.43748232 -0.35892568
C  -2.99207666 -1.32777500 -1.57510411
N  -2.14559311 -0.44134924  0.54509543
O  -2.91912015 -0.90408607  1.29907425
C  -1.46931590  0.88366875  0.76628207
C  -2.55873663  1.94728614  0.91583234
C  -0.62736119  0.73968476  2.04104955
C  -0.65814823  0.98931165 -0.50356766
C   0.18100800  2.20130256 -0.75777963
N   0.99439570  2.04912216 -1.95693091
C  -0.79676301 -0.07876699 -1.27956364
H  -1.77114186 -3.12051534  0.10400958
H  -0.20858211 -2.27298854  0.30683259
H  -0.69107983 -2.88594545 -1.28452725
H  -3.66865210 -2.03481198 -1.09144675
H  -2.67513448 -1.74547304 -2.53223250
H  -3.50954177 -0.38429643 -1.75867529
H  -3.17737060  1.74492728  1.79193905
H  -3.18470806  2.00019791  0.02321011
H  -2.06407828  2.90941080  1.05794912
H  -1.27070403  0.54437992  2.90098912
H  -0.10835867  1.68480879  2.20485990
H   0.11124259 -0.05599852  1.93808650
H   0.77350190  2.40946586  0.14320930
H  -0.48536891  3.06067074 -0.89121993
H   1.70949042  1.34673983 -1.79085034
H   1.48136117  2.91960279 -2.13768935
H  -0.30626658 -0.23840769 -2.23035830
B   2.94346214 -0.50484193  0.28632272
F   2.71524708 -0.48007718 -1.10880158
F   2.04952688 -1.41059939  0.89262564
F   4.26893440 -0.91629032  0.53454569
F   2.74331954  0.78480452  0.81620155

