42
Total Energy                               R     -1.127357036261013E+03
C   0.70354774 -2.34521174  0.49582208
C   0.62864149 -3.84147778  0.26774124
C   1.06082920 -2.03927406  1.96674659
N   1.82083423 -1.79195402 -0.33415208
O   2.54464527 -2.52577004 -0.90015100
C   2.08393247 -0.30128955 -0.45580436
C   3.33429128 -0.06628304  0.41572764
C   2.39148659 -0.07049395 -1.94402811
C   0.84701836  0.49844295 -0.05558039
C  -0.42841692 -0.13775248 -0.00555461
C  -0.52575760 -1.55480472  0.07738356
C  -2.91277507 -1.41415214 -0.17852146
C  -1.73762297 -2.17559580 -0.04921807
O  -5.08663528  0.15833183 -0.86154592
O   2.49898377  3.05457893  1.31835974
C  -2.87364296 -0.04553366 -0.10240581
C  -1.51031737  2.04347985  0.07607036
C  -1.62104794  0.63550049 -0.00438201
C  -0.28379811  2.63128629  0.17180522
C  -4.16779548  0.69158720 -0.05472899
O   2.73608177  3.06822810 -0.90758608
O  -4.39572376  1.65108339  0.65084374
C   0.90222467  1.86850314  0.08226360
C   2.15248218  2.69934363  0.08498562
H   1.57370774 -4.31297748  0.53671142
H  -1.82316695 -3.25288512 -0.00454126
H  -0.14055953 -4.25222726  0.92044283
H   2.01642752 -2.49690547  2.22689867
H   1.08890348 -0.97329723  2.18597580
H   3.09716508 -0.05829383  1.47823396
H   4.07613383 -0.83768921  0.20826490
H   3.78436797  0.88445553  0.13665907
H   3.27870084 -0.62735110 -2.24316913
H   0.38691628 -4.08416432 -0.76819108
H   1.54130378 -0.36539452 -2.56175895
H  -3.86129066 -1.92881277 -0.26778020
H   0.27268048 -2.49150662  2.57014832
H  -0.20809266  3.70857372  0.26961743
H  -2.39673390  2.66158412  0.07834064
H  -5.92385137  0.63209567 -0.75420700
H   3.27196366  3.63872605  1.28992589
H   2.58109330  0.99048264 -2.09180317

