49
Total Energy                               R     -1.158612261924826E+03
C   0.02255154 -0.94472426  0.41806714
C  -1.19603600 -1.51823224 -0.32465171
C   0.98151099 -2.09390898  0.72167413
N   0.75335600  0.13092383 -0.27997636
O   1.10345634 -0.17742527 -1.60771499
C   0.02179073  1.41286406 -0.12337014
C   1.04137546  2.55616019 -0.11161216
C  -1.00536153  1.72008028 -1.22188953
C  -0.62867674  1.25741830  1.28870757
O  -1.99428687  1.66108741  1.36965153
C  -0.39886039 -0.20927795  1.69352186
H  -0.91786693 -1.86264044 -1.32445059
H  -2.00568743 -0.79758539 -0.42940015
H  -1.59675753 -2.37559426  0.22504301
H   1.28733766 -2.60712984 -0.19529795
H   0.50473118 -2.83395195  1.37269651
H   1.88051692 -1.72572982  1.22428378
H   1.60499002  2.58398399 -1.04983644
H   1.75409978  2.43730386  0.70921041
H   0.54218032  3.52336032  0.00966925
H  -0.49921054  1.79950911 -2.18657809
H  -1.49314570  2.67781956 -1.02507769
H  -1.78469044  0.96485428 -1.31857357
H  -0.12453298  1.92467189  1.98948050
H  -2.56669450  0.99725646  0.96509020
H  -1.29713001 -0.63968599  2.14453691
H   0.39929497 -0.26513145  2.43922006
N   4.97098359 -0.27956263 -0.09110566
C   4.52892270 -1.43569913 -0.92077320
C   5.01310235 -0.68371407  1.34198956
C   6.32850758  0.15334161 -0.52514926
C   4.00777848  0.84820562 -0.25777945
H   4.01008935 -0.96872685  1.65435173
H   5.25227233 -2.24210398 -0.80944215
H   3.54797078 -1.75836658 -0.57809976
H   4.47566789 -1.11855790 -1.96066554
H   4.02602696  1.16574210 -1.29905376
H   3.00559307  0.50689362  0.00990991
H   4.32376933  1.66680078  0.38759662
H   7.02463380 -0.67100731 -0.37939376
H   6.28660791  0.42809569 -1.57771281
H   6.62975970  1.01059437  0.07461041
H   5.69398754 -1.52633502  1.45052985
H   5.36329538  0.16064545  1.93324082
B  -4.89529473 -0.43284160 -0.24692009
F  -6.26092667 -0.19860703  0.00184296
F  -4.15402972 -0.13891928  0.92813626
F  -4.69973496 -1.78244323 -0.59301138
F  -4.45130850  0.39833812 -1.29159165

