33
Total Energy                               R     -5.983280159096757E+02
C   1.01054107  0.95957456 -0.42796441
C  -0.51402387  1.68896570  1.44565583
C  -0.82131932  2.56118381 -0.85262185
N  -1.32681658  0.20733547 -0.48622803
O   2.74286117 -0.77346789 -0.38728675
C   1.44662107 -0.40137976  0.08994989
C   0.47392964 -1.45813416 -0.38983536
C   3.80118795 -0.01542982  0.16651639
C  -1.21752671 -1.42497551  1.48650533
C  -0.98617173 -1.15836605 -0.01489218
O  -2.67914067  0.50782055 -0.18532724
C  -1.86240549 -2.14827946 -0.79362471
C  -0.43765282  1.31237779 -0.04849029
H   3.80569277  1.01537872 -0.20328358
H  -0.00471771  0.98047387  2.09897739
H  -0.04502877  2.66539819  1.60344190
H   1.66534329  1.75071238 -0.05018028
H  -0.07961359  3.35125158 -0.69830331
H   1.10595416  0.95104300 -1.52082282
H   4.73282921 -0.49780876 -0.13193383
H  -1.81519173 -1.94898166 -1.86834904
H   0.55610022 -1.52358096 -1.48160864
H   3.74196609  0.00020766  1.26184831
H   0.75336942 -2.43572150  0.01693160
H   1.49196654 -0.39331711  1.18661008
H  -0.44057063 -1.00574032  2.12616138
H  -1.51484419 -3.17214454 -0.62251143
H  -0.86171218  2.33791878 -1.92293263
H  -2.17838901 -1.01411087  1.80414038
H  -1.23947845 -2.50339320  1.67270653
H  -2.90772606 -2.09568150 -0.48110617
H  -1.55277977  1.76629157  1.77524374
H  -1.79429623  2.95241250 -0.54771327

