41
Total Energy                               R     -1.398407708732919E+03
C   2.08548944 -1.21977070 -1.09119705
C   2.47181627 -2.68001909 -1.35539484
C   2.38330353 -0.31559988 -2.28269228
N   2.91032083 -0.75823031  0.08820658
O   4.06987404 -0.60152606  0.03026292
C   2.11416518 -0.54401617  1.35367367
C   2.48455263 -1.69895823  2.29605949
C   2.46841079  0.81603789  1.94073269
C   0.72096307 -0.66942830  0.80623095
C   0.70549052 -1.06134851 -0.52175718
C  -0.48855578 -1.25555998 -1.19431830
C  -1.67837185 -1.03735946 -0.51258634
C  -2.94288153 -1.20469390 -1.29913498
O  -3.31397033 -2.26413806 -1.75110529
O  -3.56111648 -0.04843915 -1.51772939
C  -1.66716181 -0.64079724  0.83245389
C  -2.95057465 -0.49333025  1.56934288
O  -3.98866252 -1.01498187  1.22066393
O  -2.84549075  0.25449973  2.66457402
C  -0.45724871 -0.45609329  1.49641959
H   3.52007811 -2.74396976 -1.65082611
H   1.84608382 -3.03258564 -2.17683444
H   2.29136115 -3.30475892 -0.47953855
H   3.42889029 -0.40789406 -2.57931123
H   2.14649216  0.72426977 -2.05570954
H   1.75393515 -0.65111380 -3.10862352
H   3.53980558 -1.63942155  2.56672194
H   2.26858098 -2.66732489  1.84269933
H   1.87528435 -1.58413734  3.19397029
H   1.83726554  0.96612803  2.81815430
H   2.27664766  1.61575246  1.22617776
H   3.51273192  0.83446220  2.25462542
H  -0.49834946 -1.54994256 -2.23782344
H  -4.37196035 -0.19928048 -2.02566628
H  -3.69932105  0.28534737  3.11901627
H  -0.44059612 -0.16185662  2.53837500
B   0.09437093  2.99736221 -0.51774839
F  -0.20952588  2.83608393  0.84891167
F  -0.72744050  2.15448642 -1.29020123
F  -0.12530315  4.34056427 -0.89184600
F   1.44977124  2.66880236 -0.74180155

