31
Total Energy                               R     -6.718332281589880E+02
C  -1.01074839  1.37638492 -0.00000000
C  -1.36902474  2.15036155  1.26987461
C  -1.36902474  2.15036155 -1.26987461
N  -1.82982504  0.10676142 -0.00000000
O  -3.00198358  0.10683545 -0.00000000
C  -1.01355327 -1.16430096  0.00000000
C  -1.36902474 -1.93780558  1.27066576
C  -1.36902474 -1.93780558 -1.27066576
C   0.37427282 -0.58994718  0.00000000
C   0.37458326  0.79670543 -0.00000000
C   1.57310231  1.49388394 -0.00000000
C   2.76713042  0.78461994  0.00000000
O   3.90475269 -1.34603312  0.00000000
C   2.75335580 -0.61224782  0.00000000
C   1.55205609 -1.31560692  0.00000000
H  -2.41687508  2.45380891  1.25247671
H  -0.74172412  3.04308875  1.29162664
H  -1.16768958  1.55638833  2.16278435
H  -2.41687508  2.45380891 -1.25247671
H  -1.16768958  1.55638833 -2.16278435
H  -0.74172412  3.04308875 -1.29162664
H  -2.41850396 -2.23528889  1.25578807
H  -1.16207718 -1.34539057  2.16330742
H  -0.74654864 -2.83382614  1.28932364
H  -2.41850396 -2.23528889 -1.25578807
H  -0.74654864 -2.83382614 -1.28932364
H  -1.16207718 -1.34539057 -2.16330742
H   1.58470350  2.57859310  0.00000000
H   3.71712642  1.30982139 -0.00000000
H   4.67406784 -0.76716991  0.00000000
H   1.55296112 -2.40017361  0.00000000

