48
Total Energy                               R     -8.863710021764230E+02
C  -0.73443707 -1.08511802  0.54881854
C  -0.86442299 -2.11725571  1.67068730
C  -0.04526805 -1.75594751 -0.65318670
N  -0.04316885  0.12176471  1.07782281
O   1.34461741  0.02438188  1.04655911
C  -0.57190447  1.33385931  0.39440377
C  -0.55267479  2.50796420  1.37501448
C   0.19311195  1.75046352 -0.87459367
C  -1.97046120  0.88304693  0.04929386
C  -2.06338337 -0.50081262  0.13570773
C  -3.24732228 -1.16204594 -0.16195385
C  -4.35367425 -0.40722452 -0.55450826
O  -5.55085865 -0.98502104 -0.86189310
C  -4.27122354  0.98206888 -0.64355310
C  -3.07508959  1.62867394 -0.34004741
H   0.13106360 -2.40401132  2.02368241
H  -1.37523438 -3.02406656  1.32961122
H  -1.42176138 -1.70440912  2.51661619
H   0.95778545 -2.08243650 -0.37159265
H   0.04391695 -1.08478864 -1.50936861
H  -0.62011621 -2.63147854 -0.97302537
H   0.47500000  2.70799462  1.69431372
H  -1.14949086  2.28237071  2.26363698
H  -0.94696503  3.42191432  0.91780794
H   1.23158727  1.98152389 -0.62908039
H  -0.26795476  2.64316236 -1.31073528
H   0.19003626  0.96908686 -1.63671661
H  -3.32076782 -2.24527129 -0.09259013
H  -5.49115470 -1.94162344 -0.76377982
H  -5.14763107  1.54524607 -0.94809776
H  -3.02017192  2.71161776 -0.41066843
N   4.26747444 -0.15543920 -0.39649160
C   5.62440248 -0.22820459 -0.99805748
C   3.22309270 -0.23163422 -1.46024802
C   4.06453201 -1.28909804  0.55340372
C   4.10455609  1.13009705  0.34501871
H   3.36589687  0.60089632 -2.14845486
H   5.72161445 -1.17018197 -1.53601365
H   5.75004492  0.60853400 -1.68386070
H   6.36556898 -0.17370797 -0.20171338
H   4.86295771  1.17599708  1.12632899
H   4.24274228  1.95299609 -0.35588261
H   3.09610807  1.13511379  0.76763668
H   4.17916701 -2.22421057  0.00572847
H   4.81856752 -1.22230281  1.33725953
H   3.05594170 -1.19362789  0.96388468
H   3.33485192 -1.17794577 -1.98892798
H   2.25918617 -0.16855257 -0.94984283

