48
Total Energy                               R     -1.083099354832555E+03
C  -0.64807328  1.88436413 -1.17413613
C   0.69586504  1.88872070 -1.92338122
C  -1.77965607  1.37913216 -2.04936723
N  -0.43349606  0.93731336 -0.02768474
O  -0.41459335 -0.23022772 -0.15415487
C  -0.24050978  1.62503201  1.29959284
C  -1.53411928  1.34678340  2.08065878
C   0.97812116  1.03939580  1.99152935
C  -0.11705391  3.08783328  0.87026562
C  -0.91386445  3.19453553 -0.43315766
H   0.91268218  0.89624984 -2.32165797
H   1.52260375  2.21249067 -1.28876567
H   0.59382593  2.59322893 -2.75024130
H  -1.52789431  0.42733256 -2.51849129
H  -1.94138752  2.11953769 -2.83505555
H  -2.70144248  1.27224509 -1.47570708
H  -1.66313870  0.27595842  2.24310891
H  -2.41296847  1.74549897  1.57163762
H  -1.43298640  1.84559091  3.04575712
H   0.84958798 -0.02476448  2.19519458
H   1.09918916  1.56193896  2.94221107
H   1.87725867  1.19405704  1.39405993
H   0.93299090  3.33875394  0.70810233
H  -0.50822019  3.74342800  1.64716513
H  -0.60215395  4.04265984 -1.04140311
H  -1.98275932  3.29088084 -0.23074701
N   4.09014363 -1.18086953 -0.08986103
C   2.68496933 -0.93373822 -0.51939855
C   4.30334547 -2.64418133  0.09421731
C   5.02360724 -0.66641170 -1.13132452
C   4.34512807 -0.47624405  1.19882876
H   3.62629358 -3.00048553  0.86861165
H   2.51662866 -1.43404153 -1.47153840
H   2.01504625 -1.33250186  0.23962185
H   2.54152638  0.13925964 -0.62605033
H   4.20833171  0.59263947  1.04612509
H   3.64140254 -0.84360025  1.94371630
H   5.36719187 -0.68216510  1.51223401
H   4.83369302 -1.19595755 -2.06326610
H   4.84640722  0.39975265 -1.26208922
H   6.04639723 -0.84025906 -0.80143322
H   4.09510763 -3.14841237 -0.84791911
H   5.33702840 -2.81256134  0.39090504
B  -3.44208337 -1.88144977  0.00028413
F  -2.86924211 -1.96251623 -1.28571409
F  -3.84893669 -0.55522918  0.25332769
F  -4.56252718 -2.73653192  0.06959958
F  -2.49109049 -2.27618054  0.96440785

