35
Total Energy                               R     -8.608545613154561E+02
C   1.24083336 -0.57892172 -0.46303067
C   1.67231645  1.00551708  1.52594360
C   2.47729394 -1.36620516 -0.08855905
N   0.00000002  1.53616137 -0.21576446
O   2.64107091 -1.93845840  0.96748339
C  -1.24083341 -0.57892163 -0.46303062
C  -0.00000004 -1.30017469  0.04944989
C  -2.47729403 -1.36620507 -0.08855913
C  -1.67231623  1.00551708  1.52594380
C  -2.37056753  1.65019649 -0.78517946
O  -3.38777312 -1.39530022 -1.06440063
O  -2.64107118 -1.93845820  0.96748334
C  -1.32919227  0.88868394  0.03467206
C   1.32919231  0.88868388  0.03467192
C   2.37056751  1.65019636 -0.78517975
O   3.38777321 -1.39530015 -1.06440038
O   0.00000005  2.80983245 -0.19354244
H   1.08460198  0.33575333  2.15312733
H   1.50254851  2.03187597  1.85758871
H   2.72818119  0.77415538  1.68166456
H   4.15948739 -1.90226931 -0.77325963
H   3.34269295  1.16672101 -0.67811554
H   2.10760893  1.66246196 -1.84552103
H  -0.00000009 -2.32691742 -0.32440613
H   1.20094449 -0.54465782 -1.55491032
H  -1.20094451 -0.54465766 -1.55491027
H  -0.00000003 -1.35655392  1.13900105
H  -4.15948734 -1.90226937 -0.77325997
H  -1.08460170  0.33575328  2.15312742
H  -3.34269298  1.16672117 -0.67811516
H  -2.72818096  0.77415540  1.68166487
H  -2.47078760  2.67676871 -0.43461715
H  -2.10760908  1.66246213 -1.84552076
H  -1.50254822  2.03187595  1.85758893
H   2.47078764  2.67676859 -0.43461751

