63
Total Energy                               R     -1.429203676082349E+03
C  -0.02561859 -1.04038653  0.95634695
C  -0.90789192 -2.07094159  0.23043359
C  -1.71423818 -2.97099876  1.16385288
C   0.97107983 -1.72909312  1.91437668
C   1.89332501 -2.76765515  1.28682751
N   0.74466190 -0.14387010  0.02963874
O   1.03407598 -0.71243555 -1.22506440
C   0.09836502  1.19603336 -0.04641407
C   1.13726981  2.29043639 -0.35330094
C   1.78093628  2.29890660 -1.73783034
C  -1.09936370  1.23947509 -1.02260903
C  -1.63748433  2.61224122 -1.42802433
C  -0.33943542  1.31773380  1.44432039
C  -1.23356681  2.47910457  1.76310702
O  -0.83035380  3.60152523  2.01061570
O  -2.53924616  2.19471430  1.76886764
C  -0.90090990 -0.06172841  1.76512172
H  -0.28730723 -2.69521962 -0.41606640
H  -1.59210579 -1.53595619 -0.43514316
H  -1.06793828 -3.61381352  1.76860816
H  -2.37421884 -3.62612971  0.58821282
H  -2.34407606 -2.39606798  1.85022593
H   0.41352670 -2.19971952  2.73284285
H   1.57160105 -0.93594522  2.37525198
H   1.33926266 -3.65171706  0.95625024
H   2.64462850 -3.10584326  2.00780421
H   2.41903688 -2.36680987  0.41995660
H   1.92589221  2.21649614  0.40321605
H   0.65864575  3.26237717 -0.19145034
H   2.44415448  1.44696773 -1.88402763
H   2.37572707  3.20943651 -1.86521074
H   1.04072176  2.27743397 -2.54229817
H  -1.92010817  0.65330322 -0.60441354
H  -0.79060636  0.70864973 -1.92666093
H  -1.95154067  3.22343520 -0.57840793
H  -2.51541898  2.48652880 -2.06953802
H  -0.90618157  3.19513660 -1.99303737
H   0.57224735  1.49314850  2.02131063
H  -3.03767362  3.00254909  1.95652686
H  -1.94060591 -0.12937971  1.44435953
H  -0.88003883 -0.26514106  2.83844989
N   5.15617045 -0.41139740 -0.51551752
C   5.03305171 -1.88650178 -0.68357769
C   4.02121507  0.09429691  0.31249281
C   6.44528021 -0.09304999  0.15905105
C   5.11920165  0.23907204 -1.85512802
H   3.07594470 -0.14730390 -0.17306742
H   5.04074911 -2.35300789  0.29991832
H   4.09651043 -2.10065047 -1.19539511
H   5.87460778 -2.24227295 -1.27589198
H   5.96195388 -0.12211363 -2.44264972
H   4.18221313 -0.02382990 -2.34248227
H   5.18701977  1.31759668 -1.72345944
H   6.45760142 -0.57645347  1.13441797
H   7.26510155 -0.46359764 -0.45411526
H   6.52146607  0.98681903  0.27537333
H   4.07132883 -0.38092126  1.29148376
H   4.12971742  1.17298536  0.41715527
B  -4.68322764 -0.96002377 -0.99736786
F  -6.06743128 -0.72858015 -1.15847630
F  -4.25209220 -0.38360943  0.21434856
F  -4.44210536 -2.34924242 -0.97173761
F  -3.98444107 -0.38146560 -2.07632206

