50
Total Energy                               R     -1.250581996358027E+03
C   0.26183366 -0.33390254 -0.56265265
C   0.63299678  0.98919993  0.10657440
C   1.26600514 -0.74165783 -1.64811887
N   0.27840786 -1.41287316  0.48255199
O   1.20998565 -1.63886422  1.16097154
C  -1.00891454 -2.18752660  0.56511349
C  -0.67885340 -3.61418316  0.09989923
C  -1.49415078 -2.14955129  2.01401201
C  -1.85050244 -1.38859393 -0.40295691
C  -3.28238965 -1.75142377 -0.63718661
O  -3.66387969 -2.90801632 -0.49237767
N  -4.08188570 -0.74549976 -1.02413099
C  -1.16620507 -0.41997423 -1.00174262
H   1.66104635  0.95997501  0.46843654
H  -0.04334149  1.21812511  0.93067756
H   0.54960912  1.77207236 -0.64819379
H   2.27354769 -0.79073823 -1.23377134
H   1.23839598  0.02742067 -2.42175607
H   1.00056909 -1.70196499 -2.09252203
H   0.04600096 -4.07104321  0.77638160
H  -0.29082049 -3.61755458 -0.92002379
H  -1.60630319 -4.18399386  0.12667780
H  -0.78531841 -2.65810016  2.66938080
H  -2.44656758 -2.67922772  2.05608217
H  -1.64436589 -1.12310084  2.35266241
H  -3.79621341  0.22513205 -0.99786743
H  -5.05697360 -0.94306376 -1.19289253
H  -1.54114547  0.26778438 -1.74871127
N   5.32760905  0.62470893 -0.02957827
C   4.49856480  1.19480224 -1.13060217
C   4.54997190 -0.42183701  0.69377227
C   6.56386846  0.01690078 -0.60144758
C   5.70033819  1.71028731  0.92258601
H   3.66433255  0.03920477  1.12541193
H   4.24446391  0.39807480 -1.82689513
H   3.59466175  1.62355581 -0.70180765
H   5.07660056  1.96612603 -1.63669258
H   6.27335086  2.46417136  0.38545331
H   4.78866695  2.14660936  1.32733364
H   6.29973701  1.28109076  1.72363372
H   6.27658513 -0.77618237 -1.28980109
H   7.12039302  0.79002154 -1.12838197
H   7.16163000 -0.38913949  0.21275688
H   4.26931130 -1.20048096 -0.01290705
H   5.17603329 -0.83761310  1.48157014
B  -3.13071365  2.72337323  0.26102657
F  -1.91625516  3.40732152  0.07493134
F  -2.96601092  1.69884019  1.21222971
F  -4.12280919  3.62087854  0.69474316
F  -3.53308717  2.14756267 -0.97562840

