50
Total Energy                               R     -9.997274226883551E+02
C   0.20580762 -0.89861524 -0.72194603
C   0.32909751 -1.84174707 -1.91954524
C  -0.39316026 -1.68387312  0.45878905
N  -0.55986122  0.30808625 -1.13133991
O  -1.93852047  0.14677792 -1.05686461
C  -0.05714236  1.49326988 -0.38805954
C  -0.17410048  2.73028091 -1.28064437
C  -0.77094658  1.78255824  0.94535056
C   1.37325042  1.09062306 -0.13584512
C   1.52445892 -0.28061371 -0.32774238
C   2.75063330 -0.88772785 -0.12591664
C   3.83956489 -0.10564328  0.27687987
C   5.14386767 -0.77750266  0.48777966
O   5.34467993 -1.96150553  0.33247531
O   6.11674366  0.05820491  0.87840402
C   3.68504652  1.27097056  0.46960974
C   2.44873056  1.87376045  0.26222277
H  -0.66768927 -2.15649908 -2.24327827
H   0.90163166 -2.74089042 -1.66831611
H   0.82065838 -1.34189464 -2.75920994
H  -1.39058297 -2.04268083  0.19766897
H  -0.47556419 -1.07786203  1.36286119
H   0.23834897 -2.54772985  0.69127573
H  -1.22419199  2.89668203 -1.53928691
H   0.39011011  2.59601982 -2.20798099
H   0.19630437  3.62909128 -0.77659929
H  -1.83119019  1.96770454  0.76289556
H  -0.33736549  2.67053653  1.41685847
H  -0.68610243  0.95449086  1.65136290
H   2.88114467 -1.95498596 -0.27317562
H   6.93197079 -0.45217313  0.99383723
H   4.53162927  1.87178553  0.78002553
H   2.33487430  2.94313142  0.41221888
N  -4.76184391 -0.37190022  0.51462520
C  -4.50601245 -1.43316264 -0.50359280
C  -3.66172345 -0.40137033  1.52266749
C  -4.75667978  0.95881982 -0.16225023
C  -6.07245598 -0.60329968  1.17548797
H  -3.66032728 -1.37802411  2.00581618
H  -3.53359955 -1.22221230 -0.95599372
H  -4.50503068 -2.40015990 -0.00133187
H  -5.30384063 -1.39984395 -1.24509449
H  -6.85624548 -0.58184297  0.41920070
H  -6.05250690 -1.57539130  1.66617952
H  -6.23992876  0.18323230  1.91009987
H  -3.77674394  1.08167342 -0.63086410
H  -5.55544116  0.97230529 -0.90348370
H  -4.93275954  1.72890378  0.58840777
H  -2.73492931 -0.22570064  0.97222579
H  -3.84333795  0.38084983  2.25909736

