38
Total Energy                               R     -9.546976113809042E+02
C  -0.56630332 -1.33713002 -0.42510989
C  -0.94028042 -1.50794676 -1.90736485
C  -1.36385416 -2.31149351  0.46435947
N   0.87543398 -1.81919702 -0.32297697
O   1.15475194 -2.81987659 -0.87246853
C   1.91939341 -1.08407799  0.46751713
C   1.50172274 -1.20632093  1.94870330
C   3.25816263 -1.75472073  0.23688357
C   1.81761210  0.35911977 -0.00073998
C   0.52689298  0.94749562 -0.07893861
C  -0.64697985  0.13889062 -0.05138766
C  -1.83594386  0.80194238  0.12381356
N  -3.12191364  0.09204997  0.27811438
O  -3.50788820 -0.09829250  1.41312513
O  -3.73523009 -0.22024645 -0.72239904
C  -1.96069950  2.20290088  0.15612213
C  -0.84818220  2.96853417 -0.03277874
C   0.42323444  2.35963857 -0.14756568
C   1.60073908  3.13362028 -0.29715305
C   2.82556252  2.52869222 -0.33815686
C   2.93754691  1.13304980 -0.15986980
H  -0.89164184 -2.55825703 -2.19228763
H  -1.96108004 -1.15793865 -2.04603513
H  -2.41409461 -2.27273418  0.18011448
H  -1.02930006 -3.33183174  0.27667442
H  -1.26052995 -2.07966493  1.52323227
H   0.55529718 -0.71507130  2.17114717
H   3.21520573 -2.80140369  0.53800923
H   1.44976758 -2.25562424  2.24355834
H   2.28490299 -0.71300956  2.52595443
H   3.57107143 -1.69210791 -0.80651153
H   4.00218764 -1.26324313  0.86265589
H  -0.27724843 -0.91833539 -2.54273707
H  -2.93932967  2.64818368  0.29105195
H  -0.92629093  4.04915991 -0.06964286
H   1.50932583  4.21205800 -0.36967879
H   3.72631007  3.11890070 -0.46085506
H   3.92599452  0.69510692 -0.10667660

