30
Total Energy                               R     -5.966144960129986E+02
C  -0.00483765 -0.69993320  1.26862463
C  -1.32183052 -1.06549024  1.96469953
C   0.01293681  1.87876030  1.40608031
N   0.05778335 -1.51449391  0.00000000
O   0.14349853 -2.68546358  0.00000000
C   0.00945302  0.68874284  0.69370751
C   1.21644778 -1.05367198  2.11607670
C   0.01664765  3.07578548  0.69742796
C  -0.00483765 -0.69993320 -1.26862463
C   0.00945302  0.68874284 -0.69370751
C   0.01664765  3.07578548 -0.69742796
C  -1.32183052 -1.06549024 -1.96469953
C   0.01293681  1.87876030 -1.40608031
C   1.21644778 -1.05367198 -2.11607670
H  -1.39953343 -0.43795543  2.85400011
H  -1.31723858 -2.11289089  2.27167632
H  -2.17898311 -0.86921716  1.31865107
H   0.01258190  1.87578827  2.49099784
H   0.01258190  1.87578827 -2.49099784
H   0.01979445  4.01737495  1.23583588
H   2.14296094 -0.86352725  1.57155125
H   1.17903690 -2.09612289 -2.43624677
H   1.17903690 -2.09612289  2.43624677
H   1.19224254 -0.41602580  3.00132148
H   0.01979445  4.01737495 -1.23583588
H   2.14296094 -0.86352725 -1.57155125
H  -2.17898311 -0.86921716 -1.31865107
H  -1.39953343 -0.43795543 -2.85400011
H  -1.31723858 -2.11289089 -2.27167632
H   1.19224254 -0.41602580 -3.00132148

