30
Total Energy                               R     -5.968030106570558E+02
C   0.00000058 -0.71985311  1.25550995
C  -1.26034889 -1.02888787  2.06408818
C  -0.00000026  1.87459300  1.40311213
N   0.00000859 -1.50879902  0.00000000
O   0.00000403 -2.77333897  0.00000000
C   0.00000075  0.67996111  0.69491684
C   1.26034325 -1.02888428  2.06410036
C   0.00000058  3.07505922  0.69752813
C   0.00000058 -0.71985311 -1.25550995
C   0.00000075  0.67996111 -0.69491684
C   0.00000058  3.07505922 -0.69752813
C  -1.26034889 -1.02888787 -2.06408818
C  -0.00000026  1.87459300 -1.40311213
C   1.26034325 -1.02888428 -2.06410036
H  -1.28002284 -0.41713996  2.96974734
H  -1.27217600 -2.08076596  2.36014075
H  -2.16095238 -0.81685725  1.48217647
H  -0.00000063  1.87485980  2.48904022
H  -0.00000063  1.87485980 -2.48904022
H   0.00000093  4.01687826  1.23681702
H   2.16095224 -0.81684516  1.48220054
H   1.27217272 -2.08076401 -2.36014770
H   1.27217272 -2.08076401  2.36014770
H   1.28000365 -0.41714174  2.96976355
H   0.00000093  4.01687826 -1.23681702
H   2.16095224 -0.81684516 -1.48220054
H  -2.16095238 -0.81685725 -1.48217647
H  -1.28002284 -0.41713996 -2.96974734
H  -1.27217600 -2.08076596 -2.36014075
H   1.28000365 -0.41714174 -2.96976355

