30
Total Energy                               R     -5.968885026434122E+02
C  -0.04772377 -0.72837236  1.21248591
C  -1.06573753 -0.94151238 -2.33429847
C  -1.06573753 -0.94151238  2.33429847
N  -0.49882632 -1.46767486  0.00000000
O  -0.16776210 -2.81834446  0.00000000
C  -0.04772377 -0.72837236 -1.21248591
C   1.34410443 -1.12750941 -1.73391317
C   1.34410443 -1.12750941  1.73391317
C  -0.03796677  0.68975699 -0.69643047
C  -0.03796677  0.68975699  0.69643047
C  -0.00614382  1.88501124  1.40251509
C   0.02640318  3.08911696  0.69689949
C   0.02640318  3.08911696 -0.69689949
C  -0.00614382  1.88501124 -1.40251509
H  -1.10925954 -2.00254461 -2.59848747
H  -0.79692379 -0.38090572 -3.23599351
H  -2.06441245 -0.62673646 -2.01684399
H  -1.10925954 -2.00254461  2.59848747
H  -2.06441245 -0.62673646  2.01684399
H  -0.79692379 -0.38090572  3.23599351
H   1.37045081 -2.20796955 -1.89270974
H   2.14242506 -0.86872080 -1.03554061
H   1.55559503 -0.62281331 -2.68247813
H   1.37045081 -2.20796955  1.89270974
H   1.55559503 -0.62281331  2.68247813
H   2.14242506 -0.86872080  1.03554061
H  -0.00823359  1.88976217  2.48926406
H   0.04968463  4.03122182  1.23650021
H   0.04968463  4.03122182 -1.23650021
H  -0.00823359  1.88976217 -2.48926406

