51
Total Energy                               R     -1.139221975994490E+03
C   1.68821897 -0.62155179  1.33909326
C   0.32168661 -0.18152916  1.85911430
C   2.45733295 -1.19845792  2.53118273
N   1.58253565 -1.67084367  0.25118884
O   0.31118415 -1.55369066 -0.40363484
C   2.64690034 -1.30247241 -0.74604737
C   4.04684879 -1.71031285 -0.26992011
C   2.43188341 -1.98211173 -2.09552716
C   2.55444553  0.23524561 -0.78117493
N   1.28280171  0.59834242 -1.48398297
C   2.42899930  0.59188808  0.69464946
H  -0.27084649 -1.03201985  2.20574949
H  -0.25703151  0.35745447  1.11090882
H   0.47564803  0.49121578  2.70904893
H   1.86341014 -1.97563361  3.02184178
H   2.65396306 -0.41224908  3.26737553
H   3.41370563 -1.63951686  2.25204663
H   4.05292899 -2.76512901  0.01558332
H   4.42156397 -1.12854175  0.57040220
H   4.75815463 -1.57969889 -1.08981515
H   2.53879905 -3.06534455 -1.98631612
H   3.19641174 -1.64162670 -2.79969543
H   1.45446545 -1.79259745 -2.53454097
H   3.38472284  0.72791307 -1.28752281
H   0.57618155 -0.13760295 -1.13857522
H   1.37834541  0.51482726 -2.49265795
H   0.98559992  1.54983311 -1.26209959
H   1.89058200  1.52955319  0.84666183
H   3.42509475  0.72771646  1.11931008
N  -3.45202539 -1.66207383 -0.05331683
C  -2.91875503 -2.29507852  1.18643887
C  -3.18765610 -2.55507469 -1.21672622
C  -4.91949759 -1.44986900  0.08952189
C  -2.77471295 -0.35002695 -0.27261640
H  -2.11199200 -2.69732453 -1.30904990
H  -3.43611218 -3.24007560  1.34463692
H  -1.85165587 -2.46541215  1.05897223
H  -3.09670661 -1.62510538  2.02585951
H  -2.96030312  0.28330213  0.59240754
H  -1.70745371 -0.53138272 -0.39264930
H  -3.18988264  0.10731433 -1.16870701
H  -5.40006791 -2.41408663  0.24736436
H  -5.09635385 -0.79861395  0.94381337
H  -5.29691391 -0.98605285 -0.82028197
H  -3.68078556 -3.51044749 -1.04449640
H  -3.58407347 -2.08435586 -2.11476569
B  -0.63393650  3.41082842 -0.08006309
F   0.65380515  3.35589058 -0.68454007
F  -1.39645997  2.32820686 -0.55633229
F  -0.49278752  3.32190623  1.31494156
F  -1.25306192  4.62368577 -0.42591011

