64
Total Energy                               R     -1.766260794966145E+03
C   0.53989746  0.77219109  1.75161368
C   1.42624573 -0.37351968  2.20840450
C   0.20456856  1.69803459  2.94431593
N   1.33952045  1.62005721  0.78966551
O   2.50591213  1.48072547  0.74864176
C   0.73227804  2.71772930 -0.05395302
C   0.98464196  4.02332610  0.73324741
C   1.52014550  2.75138342 -1.36923548
C  -0.74261880  2.44600893 -0.29339090
C  -1.38038933  1.26186731  0.15754422
C  -0.74391172  0.36157093  1.05348829
C  -1.35301172 -0.80945507  1.39246643
C  -2.62692003 -1.14810975  0.88391838
C  -3.17059271 -2.47194312  1.29792923
O  -2.74195901 -3.10738029  2.23706705
O  -4.16312184 -2.90115347  0.52528028
C  -3.29947696 -0.26639931  0.07280066
C  -4.70106417 -0.51767927 -0.40874190
O  -5.68410055 -0.29678526  0.25935022
O  -4.73552208 -0.93826483 -1.66722680
C  -2.69661731  0.97084208 -0.29368578
C  -3.38039841  1.92143177 -1.09102225
C  -2.77197648  3.09420294 -1.44073614
C  -1.44255570  3.34665737 -1.05811336
H   2.33386217  0.00771102  2.67439441
H   1.68568464 -1.03495847  1.38167234
H   0.89286983 -0.94529170  2.96600607
H   1.10993100  2.15714377  3.34484118
H  -0.23652612  1.05516868  3.70721511
H  -0.52208137  2.46578268  2.68451467
H   2.04483130  4.11394415  0.97393103
H   0.38859554  4.08718861  1.64056974
H   0.70783280  4.84819039  0.07642033
H   2.57069365  2.97474778 -1.18688421
H   1.10730923  3.54851455 -1.98572575
H   1.42819047  1.80696960 -1.90356429
H  -0.88140811 -1.51233605  2.06446098
H  -4.50102050 -3.74499199  0.85681160
H  -5.65494855 -1.05019718 -1.95270764
H  -4.39241244  1.72490037 -1.42585762
H  -3.30048223  3.82595580 -2.04045262
H  -0.96970350  4.26062585 -1.39900741
N   5.29346659 -1.04720638 -0.12785274
C   6.52488566 -0.85112082 -0.94315792
C   5.20632296 -2.46870982  0.31194974
C   5.34371133 -0.16235502  1.07098979
C   4.09290021 -0.71401335 -0.94605276
H   5.17076315 -3.10682487 -0.56910647
H   7.39206783 -1.09779319 -0.33294120
H   6.47743313 -1.50696147 -1.81087640
H   6.57196587  0.18902828 -1.26072424
H   4.14898522  0.33070465 -1.24711346
H   4.08085927 -1.35810269 -1.82324295
H   3.20661876 -0.88595722 -0.34345274
H   6.22733117 -0.41799845  1.65369018
H   5.39911063  0.87287193  0.73950435
H   4.44455744 -0.32293145  1.66231310
H   6.08443385 -2.70358355  0.91109118
H   4.30112468 -2.59534565  0.90370605
B   0.61093016 -1.64764616 -1.61644497
F  -0.74582284 -1.61371430 -1.98792820
F   1.39162328 -2.06265583 -2.71454519
F   1.02236460 -0.35259732 -1.22148171
F   0.79315908 -2.54288540 -0.54474739

