64
Total Energy                               R     -1.766267045601786E+03
C  -1.61277344 -1.62566910  1.55531680
C  -2.06692514 -0.89707545  2.80545084
C  -1.64944900 -3.15590334  1.78894573
N  -2.61629837 -1.37653357  0.46015157
O  -3.66879722 -0.93234373  0.73511011
C  -2.36653879 -1.75838233 -0.98685801
C  -3.27167987 -2.97716397 -1.23985336
C  -2.82210959 -0.55887274 -1.83052351
C  -0.89326943 -2.02432311 -1.23366079
C   0.09751100 -1.62304030 -0.30445358
C  -0.25026394 -1.23078369  1.01522449
C   0.68712001 -0.66077302  1.82275970
C   2.03321153 -0.53622466  1.40348965
C   2.94749465  0.16786204  2.34698092
O   2.56727709  0.70254865  3.36661131
O   4.21859359  0.17037022  1.96237567
C   2.42614142 -1.04976579  0.18944691
C   3.85679008 -1.07538683 -0.27287917
O   4.59709375 -2.00934479 -0.07196175
O   4.18152401 -0.00915974 -0.99015614
C   1.46044346 -1.60600480 -0.69756370
C   1.81213803 -2.10350857 -1.97688403
C   0.84463652 -2.56378413 -2.82642037
C  -0.51350784 -2.49917834 -2.46481057
H  -3.06240403 -1.22875531  3.09889064
H  -2.07078799  0.18316778  2.66379287
H  -1.38745914 -1.15235796  3.61760220
H  -2.65889268 -3.47397361  2.05420805
H  -0.98054778 -3.35049596  2.62824661
H  -1.29496604 -3.72415888  0.92998870
H  -4.30594605 -2.72745653 -1.00023431
H  -2.95851842 -3.84722488 -0.66388001
H  -3.21675171 -3.21964344 -2.30065638
H  -3.86396579 -0.31204506 -1.62760847
H  -2.73034350 -0.84253296 -2.87872909
H  -2.19118942  0.30896899 -1.64203230
H   0.43864488 -0.32023876  2.81843880
H   4.75904579  0.65805396  2.60028643
H   5.10054249 -0.08177445 -1.28917492
H   2.84827952 -2.11675474 -2.29535512
H   1.11563749 -2.94802156 -3.80279923
H  -1.25936349 -2.79673332 -3.19254412
N   1.26313162  2.89640029 -1.20738889
C   0.55773909  1.63378566 -1.57453606
C   0.26820856  3.98246014 -0.98248235
C   2.04834858  2.68533684  0.04199639
C   2.18385103  3.28382904 -2.31259384
H  -0.31712230  4.11677544 -1.88996791
H  -0.07347593  1.33164885 -0.74216402
H  -0.04836589  1.82060434 -2.45953949
H   1.30531828  0.87315055 -1.78940158
H   2.90519237  2.48221129 -2.46272279
H   1.59799959  3.43638204 -3.21740953
H   2.69605418  4.20409379 -2.03683691
H   1.36634024  2.38259956  0.83512072
H   2.78992357  1.91105070 -0.13991626
H   2.54004743  3.62044467  0.30552654
H  -0.37742334  3.69967089 -0.15477824
H   0.80478954  4.89879750 -0.74183692
B  -2.87769916  2.42555311  0.34949968
F  -1.87634289  1.46172549  0.61730055
F  -4.13454320  1.90373019  0.70910668
F  -2.61184550  3.58681598  1.10200522
F  -2.87036396  2.73956703 -1.02327215

