64
Total Energy                               R     -1.766449519507884E+03
C   0.07602551 -0.19886141 -0.84596811
C   0.36097928 -1.24950018 -1.92786135
C   0.96951713 -0.45236719  0.37869564
N   0.43013219  1.12304217 -1.42632533
O   1.60107838  1.20718866 -1.92122782
C  -0.21732784  2.41796429 -1.08954964
C   0.55845501  3.07230730  0.06612963
C  -0.12874800  3.29613734 -2.34455880
C  -1.66638366  2.21437641 -0.68107426
C  -2.18977387  0.92908210 -0.37265377
C  -1.38447014 -0.24003944 -0.43565601
C  -1.92391805 -1.44498013 -0.07321856
C  -3.27112248 -1.57645806  0.32007447
C  -3.72713670 -2.94944076  0.67434230
O  -2.97016735 -3.86951896  0.90112888
O  -5.04994282 -3.08004722  0.71009194
C  -4.08150332 -0.46543962  0.36567572
C  -5.51065023 -0.52071326  0.82421241
O  -5.84544848 -0.47413534  1.98535481
O  -6.36659775 -0.55200757 -0.19211246
C  -3.55265903  0.81339927  0.03811348
C  -4.35228643  1.97999369  0.13581084
C  -3.81868260  3.20410822 -0.14955704
C  -2.47644246  3.31742153 -0.55403533
H   1.39794669 -1.18366071 -2.25366471
H  -0.29322791 -1.10704464 -2.79121918
H   0.20224939 -2.25263345 -1.53282369
H   2.01468851 -0.39180981  0.07999100
H   0.78215139 -1.45367154  0.77117731
H   0.77784492  0.27216850  1.17207572
H   1.61019128  3.18397231 -0.20520892
H   0.48463948  2.48076827  0.98034441
H   0.14742678  4.06400430  0.26551207
H   0.91011211  3.41893492 -2.64839856
H  -0.53285046  4.28772801 -2.14321909
H  -0.68988027  2.85288087 -3.17049958
H  -1.31955768 -2.34273718 -0.08533111
H  -5.28708291 -3.97944346  0.97656952
H  -7.27578839 -0.54827128  0.14286497
H  -5.38873399  1.90976223  0.44638034
H  -4.42692983  4.09763107 -0.06547846
H  -2.08628788  4.30731912 -0.75778901
N   4.60138342  1.05199157  2.05057991
C   3.60447388  1.88113853  1.31363444
C   4.02822793 -0.29702445  2.32456056
C   5.83346568  0.90956623  1.22284127
C   4.94006551  1.71652507  3.34031726
H   3.11558866 -0.17819592  2.90590413
H   3.38259603  1.39972279  0.36382842
H   2.70342643  1.96154195  1.91791089
H   4.03306238  2.86733191  1.14246255
H   5.35152299  2.70188540  3.12852079
H   4.03315297  1.80802012  3.93556616
H   5.67426727  1.10763863  3.86516596
H   5.56539409  0.43974664  0.27911476
H   6.25034990  1.90001835  1.04783073
H   6.54804622  0.29087820  1.76318678
H   3.81104873 -0.78547953  1.37869949
H   4.75925004 -0.87716179  2.88504241
B   4.51480610 -2.18217504 -1.10256544
F   4.83492372 -2.83669510 -2.31031520
F   3.39680406 -2.80614790 -0.51232213
F   5.61380105 -2.25708800 -0.22009288
F   4.21877525 -0.82909288 -1.36827030

