28
Total Energy                               R     -6.118726672951165E+02
C   1.51720579 -0.80408666  0.07397834
C   2.28578905 -1.39477502 -1.10846355
C   2.27794732 -1.01088888  1.38559215
N   1.25576556  0.63263344 -0.15124320
O   2.18400844  1.48506726 -0.25318867
C  -0.17484004  1.01921628 -0.08131807
C  -0.39501677  1.91051547  1.14356659
C  -0.57716124  1.74010486 -1.36706715
C  -0.80548142 -0.35423695  0.04832492
C  -2.28555434 -0.53922362  0.08696287
O  -3.03704774  0.36410395  0.44037914
N  -2.74209792 -1.75529728 -0.27987413
C   0.10953792 -1.31721179  0.14651191
H   3.26814617 -0.92322963 -1.19127052
H   1.74290527 -1.24115092 -2.04461452
H   2.43147259 -2.46801417 -0.96133611
H   3.26476479 -0.54537402  1.32483400
H   2.41275656 -2.07907703  1.57447492
H   1.73428534 -0.57421892  2.22700721
H   0.22503985  2.80677714  1.05870652
H  -0.12434165  1.38428712  2.06276474
H  -1.44115065  2.20981207  1.20790793
H   0.00438111  2.65851751 -1.47838516
H  -1.63548742  2.00674338 -1.33195258
H  -0.40311054  1.10803867 -2.24191773
H  -2.14566209 -2.46596962 -0.67046263
H  -3.73460706 -1.93214921 -0.25938011
H  -0.08530896 -2.37619731  0.27539352

