34
Total Energy                               R     -3.481744855203453E+03
C  -0.47827379 -1.49195941 -1.33519073
C   0.58728298 -1.72401931 -2.39641108
C  -1.69998526 -2.38534563 -1.62113549
N   0.08384360 -1.95769350  0.00156439
O   0.91449459 -2.79117961 -0.00642414
C  -0.42759963 -1.46684974  1.35001482
C  -1.64148884 -2.34894714  1.69487715
C   0.67529152 -1.68581685  2.37502054
C  -0.78731360  0.02268659  1.24710634
C  -1.60660809  0.34738244  0.01389227
Br  -2.02848388  2.27081372  0.00278486
C  -0.83734513 -0.00140367 -1.24482472
H   0.76962458 -2.78574911 -2.56219535
H   1.52181805 -1.22671311 -2.13640376
H   0.21099976 -1.29295374 -3.32558136
H  -1.44212827 -3.44055490 -1.51826613
H  -1.97769548 -2.19575418 -2.65919671
H  -2.55848300 -2.15732950 -0.99323890
H  -1.39255423 -3.40707114  1.60024646
H  -2.52085525 -2.12638116  1.09497929
H  -1.88076503 -2.14154329  2.73908051
H   0.85746850 -2.74557309  2.55335682
H   0.33699788 -1.23555788  3.30967894
H   1.60230977 -1.19985588  2.07085121
H   0.13432665  0.60758073  1.24101756
H  -1.33331124  0.26577843  2.16034302
H  -2.58414639 -0.12931992  0.03767187
H   0.08320130  0.58414451 -1.28481152
H  -1.41960061  0.22479396 -2.13973546
B   2.73276855  1.11032561 -0.01817131
F   2.13964194  1.79328591 -1.09851250
F   4.13441281  1.19894988 -0.11336351
F   2.30200781  1.68173799  1.19572118
F   2.34830002 -0.25054283 -0.05651874

