47
Total Energy                               R     -1.552015783469805E+03
C   1.50164185 -1.26758008 -1.09445707
C   2.97887818 -1.53141281 -0.86660824
C   1.10505128 -1.71571355 -2.51807446
N   0.74991172 -2.16542067 -0.12847703
O   1.35064313 -2.95314494  0.50328978
C  -0.74946657 -2.14862345  0.00631437
C  -1.25781257 -3.29133412 -0.90203357
C  -1.06877001 -2.47420840  1.46989409
C  -1.27982561 -0.78064050 -0.37771844
C  -0.41951451  0.31720058 -0.65642708
C   0.98357665  0.15222265 -0.86432904
C   1.76608715  1.27291020 -1.02051628
C   3.25554335  1.30191912 -1.19669311
O   4.03328622  1.43472608 -0.28165016
O   3.61704081  1.27388086 -2.47687993
C   1.19526605  2.57106545 -1.02366161
C  -0.15008025  2.73797328 -0.91050779
C  -0.99045945  1.61437700 -0.73258279
C  -2.38789431  1.77810833 -0.63645795
C  -3.20217628  0.69060447 -0.46012005
C  -4.67115900  0.90023920 -0.39020930
O  -5.21009094  1.98365527 -0.48661220
O  -5.35673830 -0.22968708 -0.21016994
C  -2.63547469 -0.59297514 -0.30949001
H   3.18258949 -2.59622247 -0.97863706
H   3.31181977 -1.20634578  0.11806664
H   3.55329779 -1.03016386 -1.64129690
H   1.29541936 -2.78125959 -2.65634968
H   1.74430222 -1.15128723 -3.19843526
H   0.06902538 -1.48542257 -2.75900459
H  -0.74283955 -4.21994534 -0.65128393
H  -1.13678438 -3.07311138 -1.96029024
H  -2.31946936 -3.42004340 -0.69042537
H  -0.71146537 -3.46865119  1.73446713
H  -2.15114755 -2.45883319  1.58767094
H  -0.63244928 -1.73216151  2.13707450
H   4.58052497  1.35494728 -2.55047813
H   1.84621932  3.42951499 -1.14609118
H  -0.59141511  3.72751833 -0.95302942
H  -2.80637257  2.77549291 -0.71044783
H  -6.30278766 -0.03187860 -0.16809409
H  -3.29170498 -1.42781496 -0.10002047
B   1.08493902  0.60578522  2.77892798
F   1.54563521 -0.50668397  2.03574159
F   1.74392161  1.77016492  2.34281060
F  -0.30438763  0.75156448  2.59933582
F   1.36100474  0.38989360  4.14539576

