58
Total Energy                               R     -1.612951698428645E+03
C   0.08010734 -1.34678408  0.56139486
C  -0.27422935 -2.62251545  1.32678567
C  -0.87381484 -1.22838461 -0.64123682
N   0.10228898 -0.20176091  1.50286080
O  -1.16715431  0.32035555  1.78939832
C   1.08894227  0.81377267  1.03514030
C   1.62200924  1.55585850  2.26237977
C   0.54312648  1.84931831  0.03426588
C   2.10238822 -0.09650289  0.36125434
C   1.50804506 -1.32976923  0.08848562
C   2.20612915 -2.34667002 -0.53904994
C   3.52944967 -2.12953731 -0.89455625
C   4.14747769 -0.90987071 -0.62558471
C   5.56245768 -0.77165902 -1.05695941
O   6.31522999 -1.70932271 -1.22556946
O   5.93438025  0.49031233 -1.27442894
C   3.43206036  0.12116500  0.01330428
C   4.13004607  1.38034209  0.43586928
O   4.88793886  1.43173309  1.37928243
O   3.81097998  2.43561930 -0.30414221
H  -1.27511525 -2.52812960  1.75741526
H   0.43593324 -2.80349254  2.13800367
H  -0.27680345 -3.49501698  0.66707714
H  -1.90377739 -1.14485708 -0.29606775
H  -0.79754531 -2.13015197 -1.25574522
H  -0.65062475 -0.37250920 -1.27881445
H   0.77646437  1.97151359  2.81775552
H   2.27132177  2.39263045  1.99332905
H   2.17177569  0.88410951  2.92631084
H  -0.29801047  2.38681603  0.47674611
H   0.20644759  1.39508368 -0.89755458
H   1.31892653  2.57670949 -0.21024712
H   1.73319654 -3.30043651 -0.74826391
H   4.09498343 -2.90794651 -1.39308858
H   6.87311665  0.51899112 -1.50671151
H   4.26923533  3.22053478  0.03198638
N  -3.79257423  2.62680710 -0.68153934
C  -3.03946326  3.58766691  0.17327968
C  -4.86953203  1.98667941  0.12545833
C  -4.39578476  3.34843808 -1.83593367
C  -2.85923640  1.57627626 -1.17875991
H  -4.41259012  1.45998710  0.96042375
H  -3.72789484  4.35237926  0.52929772
H  -2.61225839  3.04350941  1.01417667
H  -2.24912182  4.04096633 -0.42256201
H  -2.09020851  2.05301610 -1.78410084
H  -2.41056887  1.08512793 -0.31823918
H  -3.42165665  0.86227423 -1.77689372
H  -5.07930833  4.10689719 -1.45784468
H  -3.59838928  3.81471065 -2.41197812
H  -4.93402043  2.63083696 -2.45284026
H  -5.54028119  2.76315168  0.48965395
H  -5.41209764  1.28742942 -0.50803785
B  -4.57663485 -2.18191720 -0.08733676
F  -3.71373241 -3.29765985 -0.06495317
F  -4.22176514 -1.28988831  0.94326822
F  -4.47227919 -1.53289218 -1.33580341
F  -5.90755965 -2.61360365  0.10356641

