51
Total Energy                               R     -1.271868219540258E+03
C   1.11912219 -1.74696295  0.54550779
C  -0.07480116 -1.03897307  1.18027515
C   0.76958730 -3.21057935  0.27427716
N   1.46411593 -1.07063693 -0.72910435
O   0.67956863 -1.08624804 -1.72219253
C   2.89795715 -0.73711164 -0.88198785
C   3.62937588 -1.90892474 -1.54863861
C   3.05795312  0.51804408 -1.72812834
C   3.33716777 -0.61373263  0.60101661
C   3.21985057  0.80499742  1.10667469
O   2.22576580  1.32315031  1.55610271
O   4.37822212  1.46779050  0.99537235
C   2.42109827 -1.59753376  1.35639351
H  -0.92843688 -1.05994131  0.50035840
H   0.16952189 -0.00461667  1.42492176
H  -0.36154921 -1.55384665  2.10141176
H  -0.12998854 -3.28321673 -0.34164075
H   0.57829745 -3.72251478  1.22152297
H   1.58535746 -3.72827051 -0.23627290
H   3.17221943 -2.13090373 -2.51616726
H   3.59630632 -2.81170715 -0.93485497
H   4.67721826 -1.64530081 -1.71336819
H   2.67497236  0.33808493 -2.73425401
H   4.11496459  0.78057982 -1.80674199
H   2.51974801  1.37127107 -1.31013725
H   4.38367264 -0.90516412  0.68796757
H   4.24957462  2.37891189  1.30138379
H   2.21903226 -1.26041776  2.37346341
H   2.92938321 -2.56066998  1.42601911
N  -1.26200275  2.83360959 -0.23349134
C  -0.89693979  3.11218143  1.18453931
C  -0.07736745  2.27685405 -0.94818419
C  -2.37584587  1.84190381 -0.27321878
C  -1.69601055  4.09698537 -0.89292781
H   0.72434872  3.01273961 -0.91244181
H  -0.58207228  2.18211301  1.65322671
H  -0.08233954  3.83431189  1.19970860
H  -1.76944269  3.51643289  1.69518294
H  -2.55581547  4.49394096 -0.35541415
H  -0.87200861  4.80807543 -0.86277459
H  -1.96600895  3.87756619 -1.92455403
H  -2.04560718  0.93244349  0.22169113
H  -3.23512190  2.26251888  0.24535487
H  -2.62359542  1.63816747 -1.31296225
H   0.22925199  1.35967936 -0.45178093
H  -0.35607838  2.07085061 -1.98018404
B  -4.19320290 -1.24269491  0.08755217
F  -4.90635365 -0.13811450 -0.42523701
F  -3.67621896 -0.91841249  1.35968309
F  -5.06176185 -2.34892951  0.20372661
F  -3.13565652 -1.56553034 -0.78774014

