45
Total Energy                               R     -1.583860917943388E+03
C   2.19393781 -1.63291283 -0.42864090
C   2.63748714 -1.35403535 -1.87076109
C   2.78736232 -2.98037336  0.04764384
N   2.84057808 -0.58582678  0.44372231
O   3.93105176 -0.23864225  0.17346854
C   2.18119802 -0.03827446  1.68540038
C   2.18973294 -1.17826890  2.73390845
C   3.01553229  1.13138586  2.17862357
C   0.74222063  0.29404253  1.32663568
C   0.01386812 -0.55824499  0.44893222
C   0.68086774 -1.56550903 -0.30193302
C  -0.04271720 -2.45886582 -1.04874472
C  -1.42599160 -2.30965608 -1.19274693
C  -2.06523034 -1.27512907 -0.57285009
N  -3.44414092 -1.03800302 -1.01635820
O  -4.17259944 -1.99676299 -1.16177387
O  -3.75564318  0.11152545 -1.27355681
C  -1.40021824 -0.39900315  0.32338727
C  -1.99980295  0.61852215  1.11418616
N  -3.45251187  0.70086833  1.30599261
O  -4.04859274 -0.34659406  1.48976031
O  -3.96622014  1.79844434  1.33668013
C  -1.26837091  1.48743804  1.86780142
C   0.12013499  1.32666304  1.97035373
H   3.72142099 -1.41371368 -1.96202499
H   2.28818918 -0.37854495 -2.20485370
H   2.20492104 -2.12237339 -2.50981664
H   3.87744677 -2.93217761  0.03548812
H   2.47438386 -3.74167281 -0.66665173
H   2.44029717 -3.26548937  1.03792162
H   3.20024131 -1.56358408  2.88130505
H   1.51142375 -1.99139029  2.48129177
H   1.84539552 -0.72624031  3.66493763
H   4.03846590  0.81380471  2.37916268
H   2.60116436  1.48199549  3.12222114
H   3.02313608  1.95373694  1.46286777
H   0.44511288 -3.24676353 -1.60781964
H  -1.97132286 -2.96632487 -1.85876033
H  -1.76439506  2.25610706  2.44700919
H   0.66192613  1.99813014  2.62087873
B   1.05979082  2.27051237 -1.72462441
F   0.28265794  1.24173524 -2.28908733
F   1.63829458  3.04394678 -2.75110166
F   0.25266205  3.08760131 -0.91270438
F   2.09657733  1.70252040 -0.94014373

