29
Total Energy                               R     -4.943114993264056E+02
C   1.65318016 -1.34302914  0.02597789
C   2.30022570 -2.37611043 -0.88440896
C   1.96442389 -1.66770969  1.49782783
N   2.30785339 -0.00000262 -0.26322910
O   3.40416287 -0.00000259 -0.69254830
C   1.65318320  1.34302984  0.02598227
C   1.96445496  1.66770807  1.49782467
C   2.30021976  2.37610513 -0.88441775
C   0.14441532  1.24472149 -0.25696537
C  -0.48560966 -0.00000104  0.33793289
I  -2.62364815  0.00000102 -0.05208207
C   0.14441507 -1.24471523 -0.25698432
H   3.34323649 -2.55210573 -0.62235814
H   2.23173289 -2.08135334 -1.93326838
H   1.75124480 -3.30960005 -0.75101969
H   3.03424065 -1.58102358  1.69447397
H   1.66547648 -2.70622777  1.64925479
H   1.41404414 -1.04802961  2.20218906
H   3.03428090  1.58105880  1.69443718
H   1.41412252  1.04800101  2.20219850
H   1.66547459  2.70621399  1.64927121
H   3.34323408  2.55210066 -0.62238198
H   1.75124169  3.30959614 -0.75102546
H   2.23171105  2.08134382 -1.93327496
H  -0.00800302  1.25525757 -1.33956606
H  -0.29626109  2.15536370  0.15135233
H  -0.43989123 -0.00000860  1.42471447
H  -0.00799473 -1.25523204 -1.33958654
H  -0.29626516 -2.15536396  0.15131450

