38
Total Energy                               R     -8.057746972028813E+02
C   1.72153654  1.10248684 -0.14893371
C   2.50780700  1.65749274  1.05056446
C   2.14504704  1.83374179 -1.43312173
N   2.08822767 -0.32482313 -0.34034767
O   3.31445758 -0.54575058 -0.59582433
C   1.28348673 -1.46119880  0.18236490
C   1.75002642 -2.72355748 -0.54271809
C   1.54988848 -1.60926652  1.69308791
C  -0.19182536 -1.17524486 -0.04331071
C  -0.67507180  0.16511735 -0.00679617
C   0.22054430  1.27024912  0.04440594
C  -0.27920414  2.54346477  0.19798329
C  -1.66196993  2.78306621  0.27166285
C  -2.54698853  1.74458143  0.15332200
N  -4.37094845 -0.45788117 -0.10674581
C  -2.08155584  0.41664690  0.00027502
C  -2.99510902 -0.68100640 -0.13091843
C  -2.48845800 -1.95758707 -0.20613474
C  -1.10416878 -2.19563629 -0.13773341
H   3.57386852  1.46906415  0.90988681
H   2.18910457  1.19862973  1.98822025
H   2.36082993  2.73621274  1.13138295
H   3.21351057  1.70130105 -1.60677926
H   1.94055657  2.90181443 -1.34502217
H   1.59691675  1.44547050 -2.29584136
H   2.81807677 -2.87135632 -0.39103702
H   1.55490240 -2.65882837 -1.61620267
H   1.23625465 -3.59948726 -0.14623071
H   2.62339740 -1.69349495  1.88380088
H   1.05827057 -2.51278338  2.06248427
H   1.15718634 -0.75884568  2.25428684
H   0.39574778  3.39124232  0.24610434
H  -2.02339852  3.79740983  0.40477866
H  -3.61045420  1.95044316  0.19858487
H  -4.69052129  0.36077068 -0.60525759
H  -4.91139658 -1.26606738 -0.38386850
H  -3.16855603 -2.79888308 -0.30413890
H  -0.77482205 -3.22777587 -0.15289878

