41
Total Energy                               R     -1.398401654063778E+03
C  -0.88410873 -1.80679827  0.62569726
C  -1.12956268 -3.27117301  0.21744693
C  -1.98900638 -1.26941399  1.53220061
N   0.38820978 -1.83571293  1.42762461
O   0.44782167 -2.29947128  2.50151581
C   1.58783848 -1.26708878  0.72066458
C   2.45306429 -2.48951753  0.36306361
C   2.29477134 -0.32183166  1.68973563
C   0.90675549 -0.60736716 -0.45778147
C  -0.45564341 -0.90009369 -0.50771936
C  -1.26634754 -0.31544484 -1.48242321
C  -2.72764416 -0.59836776 -1.61301213
O  -3.22726634 -1.69863139 -1.54282162
O  -3.42901827  0.50614722 -1.85267162
C  -0.69435316  0.56498896 -2.39560438
C   0.65808481  0.85388917 -2.34669129
C   1.47385644  0.27217548 -1.38133783
C   2.92680458  0.61934315 -1.40067438
O   3.83044069 -0.17814962 -1.28854006
O   3.12480133  1.92094153 -1.59271136
H  -1.21079836 -3.88937803  1.11292022
H  -0.33064189 -3.64705876 -0.42194719
H  -2.06815509 -3.30276242 -0.33072432
H  -2.10206625 -1.91824949  2.40147018
H  -2.92873785 -1.27963031  0.98225290
H  -1.77062389 -0.25174287  1.85402611
H   2.73124686 -3.01866598  1.27608622
H   3.34979446 -2.11984182 -0.12863786
H   1.92929838 -3.16573498 -0.31282576
H   2.58225562 -0.86274668  2.59219978
H   1.65482279  0.52133937  1.94967099
H   3.20373422  0.04718816  1.21684838
H  -4.36247072  0.28113033 -1.97960616
H  -1.31138493  1.02817066 -3.15526033
H   1.08304816  1.54054811 -3.06788340
H   4.07465433  2.09882714 -1.65797540
B  -0.78387758  2.63373406  1.37493483
F  -0.44282889  1.69480753  2.37348769
F  -1.08780468  3.87012837  1.98383366
F   0.30298314  2.79874484  0.49445440
F  -1.90827683  2.17336767  0.66175566

