40
Total Energy                               R     -1.159387805585569E+03
C   2.48811344 -1.28480110 -0.11777676
C   2.75303490 -2.11649958 -1.38390277
C   3.19170407 -1.92707361  1.08901672
N   3.07021785  0.05784171 -0.35697550
O   4.31123966  0.07838454 -0.63635042
C   2.45988446  1.30812255  0.16118257
C   2.68839540  1.39636560  1.68312827
C   3.14325058  2.48806788 -0.52594970
C   0.96337416  1.26524100 -0.09519169
C   0.26436543  0.02341800 -0.01176638
C   0.98573100 -1.19982531  0.09394787
C   0.30549109 -2.37542097  0.30673205
C  -1.08955107 -2.41268064  0.27544746
C  -1.79457146 -1.26140990  0.05824607
N  -3.21052303 -1.44727345 -0.24874798
O  -3.84132217 -2.26246143  0.39548040
O  -3.67721468 -0.80851944 -1.17886983
C  -1.16670688  0.00816094 -0.01557978
C  -1.81942103  1.26833420 -0.08152529
N  -3.24474490  1.42160822  0.20590237
O  -3.71061634  0.76833520  1.12593623
O  -3.88316412  2.22599744 -0.44397704
C  -1.13583129  2.43655612 -0.25852916
C   0.26356370  2.43098660 -0.27235607
H   3.82438187 -2.17409595 -1.57685265
H   2.25851344 -1.67226673 -2.25082329
H   2.37642657 -3.13074023 -1.25022866
H   4.27105863 -1.90581596  0.93118943
H   2.88714987 -2.96957131  1.19002775
H   2.95858879 -1.40771652  2.01901278
H   3.75449466  1.29950705  1.90143996
H   2.14272796  0.62077929  2.22282407
H   2.34243433  2.36767581  2.04260213
H   4.21607404  2.45068645 -0.34761984
H   2.78095782  3.42716111 -0.10981639
H   2.96344679  2.48484584 -1.60318952
H   0.83514919 -3.31250742  0.42044705
H  -1.60818487 -3.36069656  0.34113656
H  -1.67258502  3.37544035 -0.30797664
H   0.76837877  3.38293824 -0.35192031

