60
Total Energy                               R     -1.593783922821352E+03
C  -1.11116102 -1.05734268 -0.18181404
C  -1.09451942 -2.54152388 -0.56229654
C  -0.19007251 -0.80628553  1.02629591
N  -0.55893187 -0.31770252 -1.36034401
O   0.41962611 -0.86109830 -1.96508624
C  -0.67581474  1.14881320 -1.55687363
C   0.56350245  1.83965127 -0.96474214
C  -0.72447009  1.38438900 -3.07466291
C  -1.95043147  1.66998591 -0.92351251
C  -2.84602233  0.83036008 -0.20457888
C  -2.51013077 -0.52405156  0.12751806
C  -3.47451605 -1.23535474  0.80034636
N  -3.27654518 -2.61369939  1.29051938
O  -2.57690462 -2.77748716  2.27110689
O  -3.88098000 -3.50322460  0.72488234
C  -4.74456027 -0.73595145  1.15421583
C  -5.03810120  0.56231932  0.88182158
C  -4.09296348  1.38055330  0.21846272
C  -4.38776169  2.74285649 -0.01558831
C  -3.47557379  3.54419718 -0.64287335
C  -2.26505758  2.99788246 -1.10270802
H  -0.12172885 -2.79476649 -0.97530710
H  -1.86061944 -2.77448394 -1.30443909
H  -1.22534846 -3.17679517  0.30957096
H   0.83728103 -1.05921970  0.75820659
H  -0.49894246 -1.43600374  1.86135819
H  -0.23286725  0.23377049  1.35145084
H   1.46977994  1.37901944 -1.36137944
H   0.58111733  1.77702498  0.12286625
H   0.56804739  2.89465974 -1.24450506
H   0.17994525  1.00217603 -3.54788708
H  -0.78819369  2.45220440 -3.28453602
H  -1.59302922  0.89129510 -3.51761443
H  -5.44961223 -1.38105816  1.66539860
H  -5.99297282  0.98415145  1.17522671
H  -5.34208083  3.13502053  0.31988858
H  -3.68526861  4.59483885 -0.81056400
H  -1.57772743  3.64856940 -1.63070942
N   3.89924121  1.86602226  1.59392032
C   2.96632581  0.70419655  1.53538462
C   5.19220443  1.49922820  0.95008186
C   3.29701909  3.02218279  0.87107646
C   4.13980603  2.23908931  3.01595366
H   5.63101878  0.66689258  1.49683145
H   2.79247111  0.45127721  0.49288172
H   3.42142411 -0.13503351  2.05798099
H   2.03304672  0.98599745  2.01878559
H   3.18939935  2.51220616  3.47138897
H   4.57230077  1.38421634  3.53284867
H   4.82701239  3.08322196  3.04493076
H   3.15207154  2.74492523 -0.17112314
H   2.34243390  3.26592779  1.33393181
H   3.97705888  3.86947414  0.94304575
H   4.99967531  1.21300013 -0.08183056
H   5.85521323  2.36205769  0.98459725
B   3.90913072 -1.95468546 -0.87843810
F   2.80453758 -2.32621959 -0.08570598
F   4.14623583 -2.95090830 -1.84924132
F   3.64346104 -0.72814324 -1.52297597
F   5.04876012 -1.81697026 -0.05808094

