60
Total Energy                               R     -1.593593176816706E+03
C  -0.30625919 -0.34602951  1.22473311
C  -0.47001593  0.91463812  2.05435231
C  -1.08290610 -1.50854489  1.87564849
N  -0.95034408 -0.05672388 -0.12226156
O  -1.48967288  0.97402772 -0.28379057
C  -0.94828697 -1.04409004 -1.25925628
C  -2.33980091 -1.70656444 -1.22442804
C  -0.78249193 -0.22701944 -2.54782269
C   0.21528369 -2.00297466 -1.10182606
C   1.26237789 -1.75929915 -0.17297137
C   1.10959648 -0.82291738  0.89665555
C   2.22318834 -0.56086690  1.65196742
N   2.24136910  0.40131794  2.77098319
O   2.04095056 -0.03028086  3.88832636
O   2.52027918  1.55318998  2.51159157
C   3.46343695 -1.20257268  1.47184408
C   3.57506462 -2.16898636  0.51924880
C   2.47734741 -2.48082071 -0.31665591
C   2.57715621 -3.50436313 -1.28827342
C   1.51327447 -3.79177380 -2.09658862
C   0.34007274 -3.01718962 -2.01878440
H  -1.52796719  1.16556926  2.11994723
H   0.06766767  1.76388017  1.63379992
H  -0.13654552  0.72338336  3.07149866
H  -2.13757960 -1.25185414  1.97406059
H  -0.65226756 -1.63546972  2.87018030
H  -0.97381652 -2.44785364  1.33602205
H  -3.10913470 -0.94189929 -1.32361517
H  -2.50668983 -2.28460130 -0.31764486
H  -2.40481812 -2.37290784 -2.08427170
H  -1.60024954  0.48192515 -2.67147023
H  -0.79969670 -0.92398538 -3.38489898
H   0.17206316  0.30194468 -2.55035621
H   4.29704091 -0.94238486  2.11354240
H   4.50748884 -2.70754932  0.39268847
H   3.50817813 -4.05430345 -1.37280180
H   1.57693208 -4.58662983 -2.83073968
H  -0.45273846 -3.20651887 -2.73337564
N   2.21908360  3.04134054 -1.46590685
C   2.51539292  1.59765106 -1.24703359
C   3.26548472  3.64010961 -2.34162593
C   0.88471501  3.17908800 -2.11659758
C   2.20326584  3.74533489 -0.15164934
H   4.23191542  3.53470408 -1.85181898
H   2.51421931  1.08643855 -2.20809271
H   3.48907150  1.50519699 -0.76899448
H   1.74303869  1.19452163 -0.60018980
H   1.42413859  3.30675127  0.46914746
H   3.17619927  3.62527321  0.32121665
H   1.99637432  4.80013391 -0.32495507
H   0.90590998  2.66192992 -3.07397427
H   0.13069248  2.73835805 -1.46666001
H   0.67865561  4.23767677 -2.26555293
H   3.26736714  3.11232742 -3.29371280
H   3.03314594  4.69253161 -2.49459084
B  -4.97041214  0.51613616  0.32253142
F  -3.88719105  0.27946833  1.19608980
F  -4.51627564  1.23012704 -0.80608291
F  -5.51712831 -0.71648791 -0.08971146
F  -5.95553030  1.27009701  0.99177279

