61
Total Energy                               R     -1.577691973508754E+03
C   1.29256776 -1.38588352 -1.72774398
C   1.34881149 -0.06319757 -2.50605425
C   1.71207147 -2.55415212 -2.64361235
N   2.36409006 -1.30262297 -0.66494089
O   3.39461577 -0.81778770 -0.95769444
C   2.17677366 -1.86764132  0.71915027
C   2.15660412 -3.40427019  0.55651719
C   3.36208053 -1.44444192  1.56518422
C   0.81838406 -1.38554367  1.20457882
C  -0.28229148 -1.41851400  0.30423890
C  -0.07509234 -1.56655972 -1.09269609
C  -1.15213129 -1.70995857 -1.92967990
C  -2.46017034 -1.64406879 -1.42931411
C  -2.69809297 -1.40727631 -0.09713770
C  -4.11163135 -1.32659032  0.36004140
O  -4.52529689 -1.70346333  1.43703712
O  -4.92058520 -0.80736951 -0.56804273
C  -1.60503309 -1.28071087  0.81235325
C  -1.76712091 -0.96824536  2.18787764
C  -0.68076634 -0.84208664  3.00687656
C   0.62157140 -1.07861947  2.52279466
H   2.31616018  0.05796732 -2.99203655
H   1.15880581  0.78300525 -1.84715552
H   0.57811533 -0.09541572 -3.27514145
H   2.73669792 -2.40349765 -2.98581261
H   1.05483572 -2.53873097 -3.51297845
H   1.62295372 -3.52167174 -2.15343567
H   3.06159353 -3.75239006  0.05549801
H   1.27537748 -3.76088018  0.02566483
H   2.13166216 -3.81295311  1.56757134
H   4.29186554 -1.79796824  1.11974008
H   3.27284713 -1.91305553  2.54439187
H   3.40837348 -0.36194970  1.68711739
H  -1.01265588 -1.82555453 -2.99804080
H  -3.28744537 -1.75453670 -2.11880005
H  -5.83196901 -0.82860089 -0.24330056
H  -2.75907049 -0.81747481  2.58928348
H  -0.81738974 -0.58599720  4.05145898
H   1.45088001 -1.03471361  3.21639722
N  -2.09899111  2.83122104 -0.37517779
C  -0.94591309  3.58514179  0.19442324
C  -1.58727904  1.76771263 -1.28516744
C  -2.87660710  2.20616167  0.73218734
C  -2.97772996  3.75909845 -1.14060403
H  -1.00800345  2.23631696 -2.07870756
H  -0.31654293  2.89081020  0.74577254
H  -0.38501440  4.03227187 -0.62374041
H  -1.32859286  4.35990003  0.85686311
H  -3.33943310  4.53409419 -0.46711965
H  -2.39761871  4.20316192 -1.94785549
H  -3.81437313  3.19232575 -1.54593200
H  -2.21284427  1.55426127  1.29656388
H  -3.26067890  2.99609209  1.37555846
H  -3.69932998  1.63519635  0.30573674
H  -0.95733796  1.09572983 -0.70775922
H  -2.43496717  1.22953362 -1.70397935
B   2.81661888  2.34572247  0.38619507
F   3.66123185  2.09704829  1.48783729
F   3.53541613  2.15832736 -0.81115875
F   1.72554810  1.45020371  0.42371956
F   2.34007188  3.67028336  0.44830761

