49
Total Energy                               R     -1.121466756139713E+03
C   2.15366262  0.13072699  1.28010914
C   0.74457879  0.67426391  0.98531867
C   2.13530387 -0.49694360  2.67599787
N   2.65900530 -0.88081830  0.31881959
O   1.87488413 -2.06334407  0.36956436
C   2.80746613 -0.43009250 -1.08740088
C   3.83886240 -1.35331947 -1.76022643
C   1.52684212 -0.47316704 -1.94984800
C   3.36746916  0.97042634 -1.13449945
C   3.54217306  1.74562391 -0.07019237
C   3.15549023  1.29545360  1.30367552
H   0.06166132 -0.14233339  0.75023688
H   0.73911266  1.38111030  0.15377962
H   0.35008336  1.19695025  1.86234358
H   1.32082814 -1.21525662  2.79168135
H   1.99764514  0.28588723  3.42925497
H   3.07827094 -1.00907103  2.89027660
H   3.49309147 -2.39008654 -1.74676617
H   4.80120246 -1.30415179 -1.24263778
H   3.99713958 -1.06534397 -2.80428087
H   1.15409671 -1.49442894 -2.04571981
H   1.75784812 -0.10914084 -2.95601017
H   0.72557748  0.14697783 -1.55040146
H   3.65321280  1.32448751 -2.12367467
H   3.97866935  2.73570864 -0.18338990
H   2.71881609  2.12978190  1.86458404
H   4.05546847  0.99904250  1.85886139
N  -2.66909208 -2.13590515  0.03607098
C  -2.80019586 -3.61684509 -0.05415491
C  -1.65385437 -1.66584348 -0.94983207
C  -3.98171549 -1.49686011 -0.26254765
C  -2.23577284 -1.75894652  1.41232170
H  -0.69574417 -2.11804437 -0.70079858
H  -3.11539572 -3.88000022 -1.06251311
H  -1.83343923 -4.06646065  0.16640196
H  -3.54260358 -3.94739518  0.67017933
H  -2.97416713 -2.12894135  2.12210898
H  -1.26418733 -2.21044117  1.60850036
H  -2.16764747 -0.67478354  1.47066362
H  -4.28399665 -1.77285053 -1.27137473
H  -4.71575761 -1.85048656  0.45971004
H  -3.86692209 -0.41729828 -0.18528622
H  -1.96997967 -1.97022172 -1.94651727
H  -1.58790356 -0.58179127 -0.89192953
B  -2.34940835  2.45440498 -0.22320273
F  -2.61660213  1.60178261  0.86848624
F  -3.54805917  3.07605444 -0.63256176
F  -1.41648619  3.43694275  0.16503671
F  -1.82421503  1.70227710 -1.29477724

