49
Total Energy                               R     -1.121466452557524E+03
C   2.50311144  0.69038285 -1.03008584
C   1.23877196  0.03507305 -1.61980282
C   2.57312209  2.12971314 -1.54739167
N   2.57843817  0.72078465  0.45236569
O   1.56249433  1.55092624  0.99121424
C   2.56995202 -0.60065448  1.12911074
C   3.19516882 -0.40970080  2.52208630
C   1.18334268 -1.25164999  1.33441940
C   3.44439263 -1.57543206  0.37849495
C   3.98862108 -1.33487168 -0.80923698
C   3.74638732 -0.05279869 -1.54281403
H   0.34447504  0.36837231 -1.09088552
H   1.27697330 -1.05542582 -1.57417935
H   1.12695550  0.31429299 -2.67255458
H   1.64095120  2.67255668 -1.37656867
H   2.76278463  2.12368879 -2.62584943
H   3.38550415  2.68165830 -1.06492173
H   2.60531778  0.29182102  3.11777910
H   4.21464791 -0.02139597  2.44190184
H   3.23370213 -1.35976850  3.06419772
H   0.53963566 -0.62604889  1.95620774
H   1.30712841 -2.21041671  1.84784213
H   0.66481725 -1.44547031  0.39712545
H   3.63140692 -2.52049816  0.88586207
H   4.63064459 -2.07984485 -1.27460251
H   3.62871840 -0.24915753 -2.61486995
H   4.62875005  0.59455387 -1.45170040
N  -2.47714614  2.22733444  0.21819130
C  -1.35395013  2.90585123 -0.49035054
C  -3.48181219  1.76460877 -0.78046032
C  -1.95917824  1.05413411  0.98120155
C  -3.11737448  3.18797685  1.15997729
H  -3.84130139  2.62767860 -1.33850603
H  -0.90897753  2.20401468 -1.19193029
H  -1.75197630  3.76811041 -1.02298352
H  -0.61690162  3.22308983  0.24428574
H  -2.36952851  3.52550588  1.87540810
H  -3.50057341  4.03324631  0.59043333
H  -3.93100085  2.68317730  1.67768888
H  -1.48482771  0.36682607  0.28511455
H  -1.23626192  1.40820004  1.71337634
H  -2.79742199  0.57067959  1.47925694
H  -3.00351386  1.05496787 -1.45277118
H  -4.30640336  1.28841671 -0.25364136
B  -2.68815958 -2.35317845 -0.27482768
F  -1.81761530 -1.71454786 -1.18229683
F  -2.90107609 -3.68504890 -0.69074241
F  -2.11821743 -2.35004204  1.01460846
F  -3.92145290 -1.66891406 -0.24500013

