41
Total Energy                               R     -6.946509625655635E+02
C  -1.66731602  1.20470736 -0.11224679
C  -2.82688533  1.63559894  0.79735260
C  -0.71092015  2.37503783 -0.31017770
N  -0.91799870  0.01075554  0.32599116
O  -0.56123224  0.00135591  1.68519483
C  -1.69458231 -1.17857065 -0.09271587
C  -0.74928662 -2.21383738 -0.69396109
C  -2.56087374 -1.82122736  0.98443295
O  -2.56699214 -0.68673247 -1.13048776
C  -2.19000653  0.65623178 -1.43136506
H  -2.48086874  1.80550993  1.81968461
H  -3.62687413  0.89289980  0.82731531
H  -3.25746108  2.57218083  0.43037871
H  -0.29623276  2.69740256  0.64977509
H  -1.23003309  3.23168959 -0.75147623
H   0.11980075  2.10097480 -0.96508191
H   0.02700717 -2.47894984  0.02997497
H  -0.26343618 -1.80977809 -1.58505585
H  -1.28806142 -3.12571643 -0.96953656
H  -1.94402993 -2.33703569  1.72265133
H  -3.21548855 -2.56230946  0.51670586
H  -3.17995428 -1.08956128  1.50449834
H  -3.07042380  1.18057382 -1.80712474
H  -1.40810002  0.66722044 -2.20185552
N   3.04806965 -0.00616756 -0.01956085
C   2.82334630 -1.19198768  0.85559046
C   2.79224998  1.23817938  0.76019236
C   4.45393443 -0.00946253 -0.51087378
C   2.11014661 -0.06345088 -1.17846089
H   1.76935604  1.21049508  1.13246264
H   3.51845862 -1.14405723  1.69266152
H   1.79687185 -1.16749694  1.21781244
H   2.99908416 -2.09450096  0.27257504
H   2.29810794 -0.98492608 -1.72837078
H   1.08638236 -0.04282678 -0.79570150
H   2.29963853  0.79731058 -1.81858088
H   5.12619691  0.02412203  0.34483778
H   4.62189807 -0.91985590 -1.08384072
H   4.60581917  0.86446000 -1.14203860
H   3.49385124  1.27920996  1.59220465
H   2.93494978  2.09654905  0.10585316

