58
Total Energy                               R     -1.612847669532392E+03
C   0.23869612 -0.85163216 -1.95103811
C  -0.00469617 -1.53288261 -3.29969037
C   1.09375253  0.40245324 -2.11788308
N   0.88699629 -1.79397929 -1.01335020
O   2.01210561 -2.31608867 -1.26571354
C   0.00516642 -2.33374489  0.05876106
C  -0.33521839 -3.78626345 -0.29379146
C   0.72805997 -2.23237170  1.40002764
C  -1.17617875 -1.39223905 -0.07557237
C  -1.03951005 -0.58579861 -1.20224217
C  -1.97568812  0.37617901 -1.52946526
C  -3.06705401  0.56633143 -0.68563488
C  -4.09374675  1.60160330 -0.96197466
O  -5.03179696  1.84596332 -0.23044059
O  -3.89191807  2.25281151 -2.10885124
C  -3.19497557 -0.20055787  0.46820721
C  -2.26665005 -1.19185412  0.77707308
C  -2.50276542 -1.99880493  2.00799228
O  -2.39047732 -3.20229263  2.08564622
O  -2.89063497 -1.24478623  3.03874454
H   0.94773186 -1.79007044 -3.76920469
H  -0.54135728 -0.84853038 -3.96095203
H  -0.59912927 -2.44136691 -3.18174524
H   2.06868848  0.14262235 -2.53640567
H   1.23767034  0.91364865 -1.16503680
H   0.60106727  1.09201137 -2.80699914
H   0.58807418 -4.36663066 -0.36015646
H  -0.85558653 -3.84357124 -1.25246906
H  -0.96813199 -4.22253458  0.47664209
H   1.68746575 -2.75012186  1.33771161
H   0.14307183 -2.70988149  2.18641336
H   0.90425564 -1.19109466  1.67542944
H  -1.84408590  0.98724119 -2.41409757
H  -4.59125141  2.90941835 -2.23297206
H  -4.03720534 -0.03039280  1.12725310
H  -3.08538282 -1.81314372  3.79803960
N   4.62432069  0.42835248  0.29171964
C   4.90221720 -0.55111424 -0.79669417
C   5.76861433  0.45060120  1.24584143
C   4.44116364  1.78328170 -0.30144734
C   3.38494687  0.02615434  1.01635903
H   5.89195315 -0.54609578  1.66579871
H   5.82240117 -0.25883917 -1.29996712
H   5.01045783 -1.54146113 -0.35814484
H   4.06997158 -0.53837833 -1.49714049
H   2.55798107  0.01754581  0.31180163
H   3.53550010 -0.96848522  1.43152566
H   3.19498200  0.74325279  1.81255265
H   5.35334675  2.05571590 -0.83013536
H   3.60128761  1.75051930 -0.99288999
H   4.24443397  2.49247870  0.49967843
H   6.66775097  0.74537044  0.70745529
H   5.55120827  1.16720794  2.03586130
B   0.15395469  2.78828518  0.97233144
F  -0.64907967  3.01046128 -0.16412979
F   0.04151156  1.44610484  1.38601601
F   1.49969278  3.07130735  0.65644594
F  -0.27003474  3.63664049  2.01876342

