47
Total Energy                               R     -1.552013334372857E+03
C  -2.68752605  0.31885607  1.23222002
C  -2.56735241  1.84574394  1.35845587
C  -3.69208776 -0.23069641  2.26143092
N  -3.31384417  0.05371799 -0.11595667
O  -4.23205728  0.71243501 -0.44237821
C  -2.82374934 -1.04351240 -1.02053333
C  -3.20833393 -2.37432179 -0.33559529
C  -3.53137200 -0.91158480 -2.35465357
C  -1.30914497 -0.90428254 -1.06825813
C  -0.60043909 -0.70645853  0.14845057
C  -1.30441833 -0.30171184  1.31360544
C  -0.66280406 -0.27852691  2.52293148
C   0.71360562 -0.53390533  2.59409574
C   1.45414598 -0.76838929  1.46243946
C   2.93495941 -0.71274159  1.67986809
O   3.51727684 -1.39374143  2.49276995
O   3.60455502  0.20741533  0.98090661
C   0.81004038 -0.91094907  0.19503420
C   1.46842411 -1.21799420 -1.03755487
C   2.90370755 -1.60530364 -1.16321880
O   3.64619431 -1.18419783 -2.02218571
O   3.26566353 -2.52697210 -0.27285428
C   0.76534486 -1.25091493 -2.21479043
C  -0.63185470 -1.11704581 -2.23564626
H  -3.54645942  2.31897265  1.29242805
H  -1.90575200  2.24747259  0.58906707
H  -2.14039958  2.06360870  2.33672836
H  -4.67146741  0.22010196  2.09626166
H  -3.34717851  0.06058499  3.25274762
H  -3.77211591 -1.31600972  2.21947746
H  -4.28620383 -2.42201487 -0.17404210
H  -2.68475271 -2.53660922  0.60544068
H  -2.91699563 -3.16516908 -1.02798766
H  -4.61085196 -0.97236287 -2.21856954
H  -3.23417287 -1.74612405 -2.98818706
H  -3.28302114  0.02539860 -2.85571095
H  -1.18140314  0.01703419  3.42687281
H   1.21378834 -0.45049109  3.55199469
H   3.01338676  0.85137233  0.54578611
H   4.20498828 -2.73798211 -0.37918818
H   1.28561316 -1.46221394 -3.14161099
H  -1.14965264 -1.24317545 -3.17666913
B   1.20237932  2.92320798 -0.72245883
F   0.52088625  3.97338575 -0.08587606
F   2.19462309  3.43262105 -1.57526908
F   1.82888347  2.12084791  0.28244729
F   0.29979963  2.13519675 -1.44914676

