59
Total Energy                               R     -1.341916368810014E+03
C  -2.68215255  0.00942818  1.27237306
C  -2.79399970  1.43855911  1.84238564
C  -3.49294482 -0.93426388  2.18867125
N  -3.15691861  0.10496685 -0.12707182
O  -4.55533236  0.28910482 -0.14121206
C  -2.76698919 -0.98969566 -1.04463901
C  -3.30146495 -2.39650733 -0.68550631
C  -3.30613073 -0.61738218 -2.43127815
C  -1.24861437 -1.07015155 -1.05731752
C  -0.52376652 -0.85271969  0.15337544
C  -1.21498819 -0.39904059  1.31267318
C  -0.52160112 -0.27694302  2.49515342
C   0.86541054 -0.43891476  2.53777129
C   1.57949359 -0.76067872  1.40732366
C   3.05257956 -0.58270010  1.53737346
O   3.70914639 -0.99437611  2.46706582
O   3.66409306  0.16546238  0.60071677
C   0.89148660 -1.07052709  0.19621568
C   1.53454860 -1.54707353 -0.99025921
C   2.92773409 -2.05941547 -1.05993189
O   3.66003499 -1.92172771 -2.01848394
O   3.28468593 -2.76238623  0.01734849
C   0.81701875 -1.66728194 -2.15455072
C  -0.56225073 -1.42685505 -2.19093347
H  -3.81944157  1.79450994  1.73352093
H  -2.13020367  2.12162222  1.30419143
H  -2.54108143  1.47751362  2.90362570
H  -4.55277658 -0.68080232  2.14253754
H  -3.16592841 -0.81677624  3.22473483
H  -3.37628446 -1.98448431  1.92400646
H  -4.36856316 -2.34985656 -0.45395786
H  -2.77815171 -2.83418131  0.16613954
H  -3.16733832 -3.07368868 -1.53353086
H  -4.38977543 -0.52413367 -2.38708715
H  -3.07624445 -1.38325843 -3.17325766
H  -2.89167140  0.33530084 -2.77404936
H  -1.02727814  0.02447295  3.40403371
H   1.39482824 -0.22994054  3.46083925
H   3.04439363  0.61001763  0.00659183
H   4.20388483 -3.05137116 -0.07411341
H   1.31476785 -2.01800901 -3.05159407
H  -1.07745145 -1.58503756 -3.12829848
N   0.95137589  3.46906703 -0.70279903
C   0.46112179  2.07705250 -0.50298422
C   0.74986353  3.86712687 -2.12433420
C   0.18947744  4.39011412  0.18720911
C   2.40210145  3.53172334 -0.36684043
H   1.30884439  3.18284234 -2.76049356
H  -0.59696681  2.03951748 -0.75311149
H   1.02534997  1.41362197 -1.15681441
H   0.61336682  1.80897448  0.54084052
H   2.53355934  3.22911519  0.67054637
H   2.94250143  2.85707522 -1.02894799
H   2.74991928  4.55368090 -0.50764731
H  -0.86608035  4.33149277 -0.07245082
H   0.34014803  4.08151374  1.22042621
H   0.55771779  5.40391767  0.03959610
H  -0.31267404  3.81087463 -2.35488542
H   1.11080636  4.88550042 -2.25747567

