55
Total Energy                               R     -1.169149355247007E+03
C   0.07904233  0.28109987  1.66016995
C   0.96395366 -0.88112029  2.10105649
C  -0.58678791  0.91797299  2.89539935
N   0.93632605  1.29883110  0.99179137
O   2.12383697  1.44454758  1.42509830
C   0.39502297  2.43510297  0.19733173
C   0.34901612  3.68454979  1.09009636
C   1.36414204  2.66438349 -0.97325158
C  -0.97271215  2.09417219 -0.37369763
C  -1.55547319  0.81181411 -0.21042232
C  -1.00502089 -0.15112824  0.68794945
C  -1.55129692 -1.40265013  0.75839460
C  -2.67477255 -1.71677670 -0.03173622
N  -3.22784468 -3.06576095  0.05549408
O  -2.61999742 -3.89727918  0.71001748
O  -4.27016987 -3.31070122 -0.52973811
C  -3.28087435 -0.80926485 -0.84941228
C  -2.73111748  0.48815600 -0.94636103
C  -3.34623124  1.46436955 -1.76418784
C  -2.80793397  2.71926622 -1.84503520
C  -1.61540515  3.02313174 -1.16151841
H   1.76380128 -0.52612864  2.74796623
H   1.40064838 -1.39843685  1.24467057
H   0.37606615 -1.59580205  2.67677186
H   0.17579566  1.34964146  3.54831809
H  -1.12744619  0.14722231  3.44893754
H  -1.29835624  1.69709759  2.61685867
H   1.33671931  3.87054871  1.51572385
H  -0.37140507  3.57680725  1.90178250
H   0.06900023  4.55605188  0.49635141
H   2.37442726  2.84354773 -0.60441616
H   1.04967022  3.53881397 -1.54440725
H   1.37503000  1.80179680 -1.64326519
H  -1.16538275 -2.15473572  1.43057402
H  -4.16315085 -1.06449668 -1.42250622
H  -4.24390019  1.20136714 -2.31362856
H  -3.27837269  3.48107792 -2.45651925
H  -1.18868725  4.01159776 -1.29069390
N   4.06809253 -1.40972328 -0.88185830
C   4.53185563 -1.10787164  0.50328595
C   3.09029185 -0.37246114 -1.31719913
C   5.23783046 -1.40772824 -1.80522051
C   3.41381632 -2.74855695 -0.90953914
H   2.23327457 -0.39879673 -0.64805216
H   4.99050728 -0.12073289  0.51057064
H   3.67557579 -1.12847497  1.17328928
H   5.25839921 -1.86271242  0.79881601
H   4.13477564 -3.49788128 -0.58743343
H   2.55966653 -2.73392739 -0.23479181
H   3.08554951 -2.95486193 -1.92680553
H   5.70329497 -0.42412828 -1.77691800
H   5.94460073 -2.16748916 -1.47637716
H   4.88929680 -1.62896355 -2.81247546
H   3.57419880  0.60095153 -1.27377243
H   2.77695474 -0.59368339 -2.33619529

