43
Total Energy                               R     -1.379365585165486E+03
C  -0.14339351  1.74086440 -1.00520820
C  -0.24482168  1.19667462 -2.43432594
C   0.23865069  3.23727260 -1.04416160
N  -1.54018451  1.69759007 -0.41925139
O  -2.43937377  1.94718329 -1.13351460
C  -1.82032962  1.44029944  1.04578807
C  -1.37326495  2.71316453  1.80111324
C  -3.31720630  1.24087534  1.20248224
C  -0.95973320  0.26298849  1.47061915
C   0.34873608  0.12604484  0.93947409
C   0.80181153  0.89918926 -0.16493950
C   2.10504877  0.80967266 -0.57484599
C   2.97099203 -0.08839908  0.07091387
N   4.35937864 -0.16135459 -0.38227972
O   4.73517870  0.64361357 -1.21758805
O   5.08265174 -1.01888492  0.09460513
C   2.56133711 -0.91448929  1.07762670
C   1.22912953 -0.82190939  1.52936261
C   0.76312832 -1.66381850  2.56905166
C  -0.52516848 -1.55770854  3.00877422
C  -1.38424727 -0.57895863  2.46610228
H  -0.91596799  1.80812733 -3.03608791
H  -0.58253475  0.16133167 -2.43664960
H   0.74694809  1.24491608 -2.88188156
H  -0.52638259  3.80077976 -1.58028986
H   1.17488274  3.31634694 -1.59706398
H   0.38395415  3.65974891 -0.05265354
H  -1.84414639  3.60229811  1.37851622
H  -0.29130603  2.83324294  1.81716328
H  -1.71501610  2.58575152  2.82920574
H  -3.85877884  2.11925396  0.85262785
H  -3.54126189  1.12492119  2.26147941
H  -3.66514816  0.35907784  0.66424959
H   2.47595585  1.39075090 -1.40870635
H   3.23809747 -1.62492661  1.53491247
H   1.44564182 -2.38706578  3.00193801
H  -0.89365108 -2.20502297  3.79609700
H  -2.38221335 -0.49005732  2.87515368
B  -1.83965496 -2.26834272 -1.36631142
F  -1.21374190 -2.23435465 -2.62979546
F  -2.94951543 -3.13573308 -1.41148225
F  -0.92338002 -2.72248123 -0.40074877
F  -2.28189873 -0.96712895 -1.03249760

