47
Total Energy                               R     -7.731676351389747E+02
C   1.37298461  1.33000657 -0.30366340
C   1.26495193  2.36389317 -1.42405740
C   0.49058963  1.76787975  0.87248050
N   0.88271067  0.01946572 -0.83074164
O  -0.23605222  0.04424351 -1.44556576
C   1.32961031 -1.31605542 -0.32810383
C   0.43541465 -1.74648131  0.84225362
C   1.18613410 -2.32556704 -1.46657100
C   2.80163912 -1.25243748  0.09612471
C   3.13877972 -0.03428940  0.93643746
O   4.50222177 -0.05994031  1.35921599
C   2.84117885  1.21121497  0.12155665
H   0.22645917  2.56392668 -1.69143977
H   1.80208143  2.03526832 -2.31728638
H   1.71300641  3.30025099 -1.08236741
H  -0.55301907  1.84217480  0.56035075
H   0.81221215  2.75622107  1.21045991
H   0.55366242  1.08424742  1.72050660
H  -0.60884576 -1.79537671  0.52884301
H   0.51071866 -1.07265797  1.69698280
H   0.73567473 -2.74469347  1.17079226
H   0.14133276 -2.48283420 -1.73805582
H   1.59932062 -3.28349771 -1.14112750
H   1.73597841 -2.00100595 -2.35353327
H   3.43662926 -1.23368102 -0.79826649
H   3.03512698 -2.16980125  0.64267495
H   2.56473930 -0.03472479  1.86544490
H   5.06550273 -0.05786172  0.57815302
H   3.47725625  1.19137418 -0.77205518
H   3.10202308  2.10919008  0.68761304
N  -3.69378590 -0.00099223  0.27145619
C  -2.81982536 -0.00153671  1.47886574
C  -3.34942877 -1.16457620 -0.59569248
C  -5.11960580 -0.09717081  0.69317707
C  -3.48444009  1.26257254 -0.49176822
H  -2.31450828 -1.06419619 -0.91847011
H  -2.97784098 -0.92990000  2.02538929
H  -1.78448511  0.07385485  1.15920840
H  -3.08396225  0.85210448  2.10107382
H  -3.73418229  2.10487086  0.15107769
H  -2.44137193  1.31674752 -0.79861904
H  -4.13295114  1.25258769 -1.36643614
H  -5.25911992 -1.02438644  1.24637622
H  -5.35464069  0.75703269  1.32589395
H  -5.74983489 -0.09140905 -0.19422067
H  -3.48273957 -2.07959803 -0.02103668
H  -4.01394948 -1.16268299 -1.45836630

