52
Total Energy                               R     -1.235501626811856E+03
C  -1.40726643 -1.55451173 -1.24894153
C  -0.36122104 -0.98531477 -2.20890329
C  -2.19318661 -2.71314829 -1.86292530
N  -0.67770977 -2.09496862 -0.04099828
O   0.12652201 -2.94399597 -0.11128399
C  -1.09123831 -1.46539464  1.26767418
C   0.15574559 -0.95050064  1.97698450
C  -1.79840680 -2.56385196  2.07264651
C  -2.03832243 -0.41100055  0.76823829
C  -2.25464571 -0.49800858 -0.59917403
C  -3.13645304  0.36140002 -1.23801673
C  -3.78931729  1.32548351 -0.47772746
C  -3.55422410  1.42823970  0.89327925
C  -2.67877286  0.55517367  1.53004642
H   0.30484460 -1.77320007 -2.56273933
H   0.21853261 -0.19053098 -1.73775039
H  -0.90141673 -0.56822053 -3.06053498
H  -1.51390474 -3.48463702 -2.22864600
H  -2.75897402 -2.31074089 -2.70471931
H  -2.89090947 -3.14240569 -1.14223453
H   0.81540718 -1.77747402  2.24221193
H  -0.17228746 -0.45444036  2.89196832
H   0.69802309 -0.23521881  1.36099054
H  -1.10106112 -3.36807075  2.31229028
H  -2.65574739 -2.96375073  1.52883548
H  -2.15005951 -2.10613049  2.99864565
H  -3.30077460  0.29137679 -2.30792243
H  -4.47774307  2.01186761 -0.95814426
H  -4.06056414  2.19449715  1.46984265
H  -2.49900112  0.62765472  2.59734008
N   0.58436294  3.11634783 -0.09669130
C   0.98462493  4.52074667 -0.39048530
C   1.71452338  2.19753043 -0.41514676
C   0.23155512  2.98743127  1.34587265
C  -0.59620541  2.74495584 -0.92496830
H   1.97080768  2.31130502 -1.46674390
H   1.85370009  4.77053527  0.21559774
H   1.22892553  4.60023664 -1.44837474
H   0.15346168  5.18018718 -0.14664996
H  -1.41428632  3.42525837 -0.69627731
H  -0.32551829  2.81884952 -1.97703612
H  -0.87355452  1.72331273 -0.67981233
H   1.09803080  3.26646355  1.94317363
H  -0.60532423  3.64908673  1.56253523
H  -0.04635301  1.95484053  1.54613962
H   2.56436126  2.45863964  0.21167897
H   1.39689516  1.17733020 -0.21613597
B   3.65696976 -0.81767070 -0.01429322
F   4.02910055  0.17832866 -0.94111824
F   4.66633348 -1.80108566  0.04919521
F   3.48741943 -0.23705677  1.25934531
F   2.44800865 -1.41477892 -0.42883140

