57
Total Energy                               R     -1.499854712336421E+03
C  -1.24936582  1.66931119 -0.48811449
C  -1.53134891  1.52846831 -1.99055373
C  -2.45664953  2.42495742  0.09322368
N  -1.12456707  0.29909291  0.09265967
O  -0.20441064 -0.44658062 -0.68214938
C  -0.69018336  0.22004918  1.51123453
C  -1.74272268  0.77956686  2.49038997
C  -0.57960010 -1.26160433  1.89023102
C   0.65183020  1.00453478  1.75221942
C   1.90755685  0.26919912  1.34025818
O   2.32352867 -0.72571021  1.91103686
O   2.61019455  0.83841350  0.35842024
C   0.55248010  2.42358119  1.18245986
C   0.09847706  2.44442800 -0.28022096
C   0.02606958  3.85984952 -0.77181734
O  -0.36421715  4.81581353 -0.12772902
O   0.45520472  4.00273331 -2.03504653
H  -2.40747061  0.89524824 -2.15254708
H  -0.69282640  1.10026183 -2.53718389
H  -1.75387315  2.50644767 -2.42419148
H  -3.30579951  1.74412866  0.19047901
H  -2.75273419  3.22560739 -0.58869506
H  -2.27858964  2.88909091  1.05985322
H  -2.74510393  0.46712413  2.18910502
H  -1.73963234  1.86119599  2.59677404
H  -1.55029171  0.36690015  3.48400644
H  -1.57395500 -1.71436638  1.84617826
H  -0.21849234 -1.35896942  2.91710866
H   0.08030450 -1.82555988  1.23882600
H   0.75631608  1.08192541  2.83971392
H   3.40966560  0.30801036  0.17784834
H   1.51572243  2.93076959  1.27401238
H  -0.14719459  2.99716726  1.79283047
H   0.83764008  1.92971357 -0.89340070
H   0.36519752  4.92957609 -2.29817857
N  -4.16472700 -2.48027633 -0.48447856
C  -2.99523022 -3.40416763 -0.48521430
C  -4.54688979 -2.15249836  0.91779956
C  -3.79357994 -1.22322899 -1.19620973
C  -5.31314447 -3.13350243 -1.17145552
H  -4.80252562 -3.07442509  1.43759602
H  -2.15202554 -2.90447858 -0.01249618
H  -3.25904187 -4.30553688  0.06553786
H  -2.74961754 -3.65165697 -1.51646911
H  -5.02616177 -3.35507723 -2.19798054
H  -5.56123576 -4.05296309 -0.64336702
H  -6.16210140 -2.45196378 -1.15817801
H  -2.95584851 -0.75733086 -0.66945488
H  -3.51078331 -1.47555494 -2.21731252
H  -4.65762230 -0.55973054 -1.20129308
H  -3.70538877 -1.66504303  1.40594656
H  -5.40441155 -1.48196791  0.89684692
B   4.69495818 -1.96524917 -0.64553141
F   3.39208516 -2.16575891 -1.12884160
F   4.86011365 -0.57924157 -0.33023928
F   4.90162868 -2.72194991  0.51858969
F   5.63612291 -2.31916425 -1.62541593

