57
Total Energy                               R     -1.499560002321226E+03
C   2.47829528  0.99816384 -0.40929472
C   1.85584328  1.69257050 -1.61236415
C   3.67961402  1.80601608  0.11790258
N   1.43684273  1.06165983  0.71773962
O   0.68328191  1.96379547  0.70230320
C   1.37758740  0.11272741  1.90088741
C   2.46233378  0.58009161  2.89121907
C   0.01219218  0.25778826  2.56067849
C   1.66111169 -1.31516431  1.39595310
C   0.46538104 -1.92155145  0.68549481
O   0.04021470 -3.03368402  0.90702543
O  -0.04257789 -1.10548561 -0.22604284
C   2.90851121 -1.38603628  0.51011156
C   2.80789519 -0.49018682 -0.72131352
C   4.10419358 -0.57992598 -1.51171048
O   5.19808585 -0.74197748 -1.02162473
O   3.90360177 -0.48158336 -2.82354864
H   1.67924618  2.74984346 -1.41967747
H   0.92104238  1.20914999 -1.90234774
H   2.55884092  1.61231677 -2.44097183
H   3.34521547  2.75021979  0.54965329
H   4.31255604  2.03568019 -0.74086507
H   4.27107001  1.25834560  0.84831154
H   2.35718603  1.64711343  3.09198811
H   3.47560919  0.37060724  2.55929406
H   2.28239823  0.03242592  3.81739268
H  -0.08778814  1.22472654  3.05271952
H  -0.05800394 -0.52168581  3.32161164
H  -0.81006421  0.13279427  1.85607306
H   1.83382723 -1.91951244  2.28672714
H  -0.84135806 -1.48604566 -0.64953218
H   3.05553689 -2.41739161  0.18389664
H   3.78142532 -1.11762077  1.10460869
H   2.01837720 -0.85503447 -1.37733336
H   4.75042138 -0.52659784 -3.29137483
N  -3.03338771  2.39309880 -0.30225271
C  -3.51789524  3.37269188 -1.31472389
C  -2.05569295  1.46428694 -0.93761135
C  -2.37080098  3.11930532  0.81800948
C  -4.18806192  1.61414301  0.22770296
H  -2.55339270  0.93007268 -1.74444386
H  -2.66632556  3.93732798 -1.69046389
H  -3.99539972  2.82730865 -2.12707779
H  -4.23323851  4.04200596 -0.83991059
H  -4.88632712  2.30493198  0.69744634
H  -4.66824618  1.09597134 -0.59930164
H  -3.81771115  0.89556596  0.95560506
H  -1.53297953  3.68783758  0.41909123
H  -3.09628614  3.79048393  1.27456164
H  -2.02090853  2.39087093  1.54734857
H  -1.22670531  2.05094428 -1.32945449
H  -1.70326545  0.76544780 -0.18383892
B  -3.42273719 -2.14496433 -0.42757087
F  -3.65647252 -3.51513248 -0.24845591
F  -3.08431096 -1.54622861  0.79624432
F  -2.32025215 -1.98139968 -1.33308834
F  -4.54998073 -1.52553173 -0.98257086

