29
Total Energy                               R     -5.003274194061083E+02
C  -0.55481296  1.09429568  1.04430240
C   0.93067754  0.96588849  0.71282678
C   1.09821669 -1.46887007  1.24377641
N   1.31150596  2.00499959 -0.29917367
O  -0.46573643 -1.67906889 -1.31043723
C  -1.29324038  0.16198928  0.05115729
C  -2.17703167 -0.84549945  0.79669312
C  -2.17755393  0.95933230 -0.90951674
C   2.27708921 -0.63651088 -0.77568981
N  -0.17353249 -0.43376345 -0.72806089
C   1.04504777 -0.43593994  0.10463200
H   1.09172519  2.94165642  0.03691164
H   0.79237389  1.84518638 -1.16543904
H   2.30670963  1.97523259 -0.51742586
H  -0.89809860  2.13039324  0.98356298
H   1.58695020  1.11960125  1.56737372
H  -0.71176400  0.76887935  2.07361718
H  -2.89264846 -0.30380372  1.42342856
H   0.41944713 -1.23750780  2.06596923
H  -1.60188981 -1.50975270  1.44374883
H  -3.01572811  1.42424177 -0.38008070
H  -2.74731540 -1.46368065  0.09936398
H  -2.59007926  0.30374922 -1.68289558
H   0.84383415 -2.45903209  0.85876899
H  -1.60424019  1.75096308 -1.40202166
H   2.35054442 -1.68300039 -1.08064647
H   2.23895219 -0.03433780 -1.68753805
H   3.19104579 -0.38550608 -0.22827614
H   2.10990469 -1.51749644  1.65662951

