32
Total Energy                               R     -6.720888891959919E+02
C   0.37642628  0.85432665  0.16523709
C   0.52037630  0.90713546  1.69609288
C  -3.22777026 -0.22139026 -0.88842524
N  -1.12994192  0.79245715 -0.11460101
O  -1.68455781  1.81028395 -0.31781445
C   1.01963638 -0.39328863 -0.50052689
C   0.88763413  2.14986401 -0.44813401
C   2.47875821 -0.50280302 -0.09936300
C  -1.13587335 -1.61742767 -0.69988086
C   0.28816618 -1.69475643 -0.18205915
O   3.30134481 -0.00341666 -1.02022664
O   2.86971153 -1.00933456  0.92778625
C  -1.96204707 -0.48173992 -0.08748871
C  -2.31539099 -0.73233522  1.38898875
H   0.46152903  3.02156122  0.04712608
H  -0.16074550  1.65002984  2.11416933
H   0.35209069 -0.05223724  2.17922026
H   0.67502025  2.19708173 -1.51771168
H  -3.88031903  0.50400121 -0.40269631
H  -2.99740455  0.11708346 -1.90057960
H   0.99067302 -0.22606094 -1.58000624
H  -1.12698865 -1.49455984 -1.78670088
H   0.80434829 -2.51740474 -0.68107757
H   1.96822929  2.18360645 -0.30808949
H   4.21856908 -0.09483791 -0.72275066
H   1.54040421  1.22741642  1.91103159
H  -1.67717760 -2.54023117 -0.48156369
H   0.31752476 -1.90563624  0.88877653
H  -3.06991932 -1.52105671  1.38920186
H  -3.76176131 -1.17064405 -0.95662387
H  -1.46880614 -1.07125712  1.98104395
H  -2.74715618  0.16017395  1.84483108

