49
Total Energy                               R     -1.253981629542256E+03
C   1.74475171 -0.58982632 -0.79705394
C   1.65818637 -0.82103374 -2.31782018
C   2.18585683 -2.18467614 -2.74810447
C   3.21575823 -0.55699527 -0.28226563
C   4.18666113  0.32295324 -1.05110435
N   1.18531124  0.80014493 -0.53949729
O   1.39920082  1.62850792 -1.35512904
C   0.45191883  1.23822270  0.72003027
C   1.52742755  1.83497858  1.67639487
C   2.27826625  3.06360415  1.19247337
C  -0.57559376  2.29312339  0.26381602
C  -1.44661410  2.81778229  1.39807104
C  -0.24954748  0.03871622  1.36496218
C   0.59792005 -1.22807130  1.39656484
C  -0.11381271 -2.36112289  2.09468614
O   0.39619368 -3.06407539  2.94172370
O  -1.36630261 -2.53770298  1.67499551
C   0.91766358 -1.63351929 -0.04119885
H   2.21093242 -0.04203736 -2.84123733
H   0.60884882 -0.72331565 -2.61108011
H   3.23909584 -2.31731119 -2.48939483
H   2.10147728 -2.26830006 -3.83396368
H   1.61792822 -3.00824550 -2.31026283
H   3.53796773 -1.59944085 -0.33866559
H   3.23118750 -0.29994477  0.77665487
H   4.32544966 -0.02040575 -2.07807644
H   5.16007390  0.28715738 -0.55588516
H   3.88185379  1.37177652 -1.07999071
H   2.22905068  1.05442846  1.97094946
H   0.96079303  2.08088988  2.57770765
H   2.85113198  2.88175543  0.28015138
H   2.99347447  3.36201568  1.96298371
H   1.61245780  3.91072496  1.01608563
H  -1.20886084  1.83164484 -0.49742734
H  -0.06226679  3.12868663 -0.21004378
H  -2.02185443  2.02677401  1.88303166
H  -2.15936718  3.53731322  0.98860122
H  -0.86038611  3.33529167  2.16139726
H  -1.17314585 -0.15982569  0.82014220
H  -0.52600163  0.33900216  2.37676181
H   1.51690858 -1.07331344  1.96243652
H  -1.76341899 -3.28649072  2.14188927
H  -0.01594153 -1.80571445 -0.58252975
H   1.48515785 -2.56492091 -0.06085979
B  -3.50652422  0.06844952 -0.99879088
F  -3.56897132 -0.07275225  0.40272205
F  -4.59218366 -0.61217373 -1.58803334
F  -3.56941691  1.43682675 -1.33559507
F  -2.29641631 -0.47857932 -1.47557912

