48
Total Energy                               R     -7.533062208473661E+02
C   1.43491817  1.35680382 -0.18655311
C   1.21602795  2.42741352 -1.25593847
C   0.77772772  1.80902558  1.12447161
N   0.77928501  0.10068154 -0.65686324
O  -0.41450653  0.21628542 -1.08750316
C   1.21805599 -1.27688258 -0.28526051
C   0.49387910 -1.71442071  0.99525109
C   0.83108838 -2.21610121 -1.42800995
C   2.73987035 -1.31211767 -0.10131981
C   3.30132488 -0.15138187  0.71521494
N   4.75335110 -0.21738152  0.89754938
C   2.94125214  1.13842142 -0.00320119
H   0.16076432  2.68391574 -1.35721077
H   1.58813179  2.09054779 -2.22737377
H   1.76458569  3.33021638 -0.97406726
H  -0.29632365  1.94939875  0.98391528
H   1.20522989  2.76747964  1.43130671
H   0.93231830  1.09616253  1.93647556
H  -0.58818911 -1.66987006  0.85680328
H   0.75925660 -1.09906497  1.85669473
H   0.76157834 -2.74937960  1.22514579
H  -0.25169774 -2.29729869 -1.53379468
H   1.23099350 -3.21246344 -1.22106532
H   1.24936820 -1.87023884 -2.37716911
H   3.22245872 -1.29422404 -1.08687883
H   2.99942526 -2.26799581  0.36469944
H   2.85760333 -0.15331308  1.71585802
H   5.20451723 -0.26009534 -0.01281835
H   4.99607954 -1.08278429  1.37022685
H   3.42387975  1.12387628 -0.98901388
H   3.34281551  2.00080054  0.53635544
N  -3.71635681 -0.00912263  0.21119031
C  -3.57098813  1.17597784 -0.68341695
C  -2.84862945  0.17219488  1.40963063
C  -5.13714869 -0.14303095  0.63971395
C  -3.29677238 -1.23893472 -0.52309449
H  -1.81753994  0.26228281  1.07716379
H  -3.88590034  2.06395280 -0.13754444
H  -2.52594757  1.26115207 -0.97746134
H  -4.20167046  1.02995328 -1.55889165
H  -3.94744586 -1.36583334 -1.38692462
H  -2.26236572 -1.11414079 -0.83990499
H  -3.39218795 -2.09198913  0.14694433
H  -5.42551419  0.75705023  1.18026728
H  -5.75929361 -0.26591401 -0.24523856
H  -5.22613787 -1.01491698  1.28583469
H  -3.15873407  1.07619050  1.93130662
H  -2.96159698 -0.69478606  2.05832337

