50
Total Energy                               R     -9.996135910065350E+02
C  -0.62282750 -0.57815048  0.61539606
C   0.18498023 -1.42921032 -0.37099178
C  -0.91911860 -1.34193182  1.90339547
N   0.17515965  0.63423211  0.94755361
O   1.30559053  0.54980707  1.51342014
C  -0.28429771  1.88725472  0.31128644
C   0.65731696  2.28142466 -0.83009098
C  -0.37099201  2.99877552  1.35388628
C  -1.63278088  1.44190631 -0.18997516
C  -1.83938684  0.07541450 -0.01650663
C  -3.07759169 -0.47345462 -0.36830457
C  -3.40581783 -1.91837351 -0.21499704
O  -2.67046954 -2.84120883 -0.49167541
O  -4.64495016 -2.10720434  0.24881468
C  -4.06234567  0.35952868 -0.90825665
C  -3.82140878  1.71102424 -1.11608554
C  -2.60132975  2.26262921 -0.74731933
H   1.13170028 -1.72063057  0.08893020
H   0.39705375 -0.87195426 -1.28597715
H  -0.36931157 -2.32968269 -0.62897800
H   0.01829773 -1.61681583  2.39213589
H  -1.46431531 -2.26111240  1.68771547
H  -1.51078459 -0.73523927  2.59266771
H   1.65503101  2.49925511 -0.44126474
H   0.27522001  3.18010666 -1.32005331
H   0.73322529  1.48565733 -1.57444192
H   0.61834820  3.20722761  1.76752515
H  -1.04522630  2.72387656  2.16816126
H  -0.74365788  3.91294239  0.88647762
H  -4.83279173 -3.05590642  0.28717454
H  -5.02252342 -0.06116127 -1.18233782
H  -4.59351597  2.33429198 -1.55270213
H  -2.41130160  3.32248040 -0.88232036
N   4.53151533 -0.53404604 -0.38121883
C   3.39020012 -0.06210169 -1.21592876
C   5.65463411 -0.96085004 -1.26158519
C   4.98415715  0.57694323  0.50317955
C   4.08953611 -1.68603970  0.45537999
H   5.30915336 -1.77495256 -1.89655522
H   3.72201142  0.78552610 -1.81337888
H   3.06699671 -0.87661967 -1.86156611
H   2.58540998  0.23527682 -0.55012973
H   3.28131557 -1.35552304  1.10515746
H   3.74488708 -2.48254587 -0.20163577
H   4.93433302 -2.02901381  1.05029486
H   5.31028622  1.40792303 -0.11993145
H   4.15048963  0.88421668  1.13245506
H   5.80952311  0.22038322  1.11713812
H   5.96335609 -0.11345364 -1.87117497
H   6.48113393 -1.29573988 -0.63709764

