32
Total Energy                               R     -6.722821176917423E+02
C   0.98416964 -1.28523949  0.08435620
C   1.23809513 -1.57938545  1.56953564
C   1.01350721  1.86015312  1.33051020
N   1.55477613  0.04951488 -0.26300253
O   2.82535475  0.12766910 -0.30086921
C   0.81939266  1.33727345 -0.09917135
C   1.40487481  2.34144530 -1.09192991
C   1.69843914 -2.33426926 -0.76792142
C  -0.51242596 -1.32321538 -0.24684339
C  -1.26447159 -0.09821310  0.24888249
C  -2.73597126 -0.18039787 -0.06979844
O  -3.45089678  0.69391026  0.65264411
O  -3.24768101 -0.91261798 -0.88226966
C  -0.66693364  1.14342324 -0.42248298
H   2.29678146 -1.44646107  1.80503430
H   0.96724904 -2.61636002  1.78638998
H   0.65559219 -0.93577949  2.23118288
H   2.07655794  1.88700543  1.58129992
H   0.49976928  1.24787180  2.07374926
H   0.61879398  2.87729683  1.40310746
H   2.43590422  2.59449377 -0.84294755
H   0.80953500  3.25815923 -1.06679676
H   1.37934033  1.94389036 -2.11015505
H   2.75183746 -2.41964275 -0.49921005
H   1.22297370 -3.30620283 -0.61052014
H   1.62866583 -2.08691174 -1.83071860
H  -0.63758618 -1.39554303 -1.33164756
H  -0.78912895  1.04434185 -1.50691273
H  -1.19497247  2.04964626 -0.11613144
H  -4.38184798  0.63373059  0.38880477
H  -0.92751758 -2.23788229  0.18478917
H  -1.18165275  0.00060459  1.33483560

