32
Total Energy                               R     -6.720972487356559E+02
C   0.81911435  1.36739004 -0.05496365
C   1.05109123  1.77699488  1.41203733
C   1.43854321  2.39393197 -0.99181260
N   1.55944799  0.05251807 -0.25548398
O   2.65078910  0.09134888 -0.70039516
C   0.98408198 -1.30615748  0.12138314
C   1.73609291 -2.36154502 -0.67591445
C   1.25659044 -1.49456143  1.62617372
C  -0.51029796 -1.32284688 -0.22395260
C  -1.26610004 -0.09434342  0.25658252
C  -2.73455679 -0.19163600 -0.09277430
O  -3.23695267 -1.02783035 -0.80110267
O  -3.43967951  0.78628599  0.48549036
C  -0.66442022  1.15828909 -0.38432347
H   2.46028969  2.64775010 -0.70921068
H   2.11082433  1.73784003  1.67055962
H   0.71689265  2.81291858  1.49227309
H   1.42194143  2.05062905 -2.02838219
H   0.83151084  3.29810286 -0.92234383
H  -0.77732271  1.09769662 -1.47104645
H   1.69082246 -2.16187937 -1.74865160
H  -0.61806678 -1.41686001 -1.30761446
H   1.24290686 -3.31623991 -0.48540310
H   2.77755148 -2.44929745 -0.36585367
H   1.05815170 -2.54648507  1.83921523
H   2.30096145 -1.28764109  1.86774315
H   0.61183115 -0.89358895  2.26282094
H  -0.91404033 -2.23336205  0.22297806
H  -1.21929670 -0.00693352  1.34550955
H  -4.37044008  0.70551278  0.22524466
H   0.48195600  1.18161158  2.12207433
H  -1.17669946  2.06106861 -0.04807887

