34
Total Energy                               R     -3.481755601131539E+03
C  -0.44526333 -1.49850018 -1.33575379
C   0.62521675 -1.70859884 -2.39738141
C  -1.64928015 -2.41722318 -1.62185447
N   0.12459211 -1.95472713  0.00176000
O   0.96663058 -2.77781230 -0.00656878
C  -0.39360212 -1.47182784  1.35115233
C  -1.58880844 -2.38053068  1.69721587
C   0.71513135 -1.66632247  2.37575084
C  -0.78653230  0.00946974  1.24709884
C  -1.61388431  0.31506995  0.01401615
Br  -2.08505339  2.22713583  0.00298624
C  -0.83604910 -0.01583601 -1.24462064
H   0.82589884 -2.76593344 -2.57151133
H   1.55139186 -1.19687825 -2.13526046
H   0.24255439 -1.27869322 -3.32472015
H  -1.37484571 -3.46835955 -1.51569787
H  -1.92722108 -2.23703277 -2.66171809
H  -2.51398355 -2.20316698 -0.99733234
H  -1.31845599 -3.43433586  1.60851998
H  -2.47157664 -2.18031648  1.09441365
H  -1.83474848 -2.17506213  2.74040611
H   0.91875054 -2.72119669  2.56124320
H   0.36925063 -1.21838965  3.30901301
H   1.63235799 -1.16316772  2.06945792
H   0.12190036  0.61456176  1.24057952
H  -1.33699863  0.24122406  2.16079260
H  -2.57932531 -0.18585861  0.03787192
H   0.07193720  0.58891308 -1.28396665
H  -1.42226894  0.19870042 -2.14003658
B   2.71526103  1.16479052 -0.01872667
F   2.11708241  1.84797317 -1.09589388
F   4.11638164  1.24433645 -0.12497869
F   2.29657306  1.73943493  1.19750594
F   2.32320584 -0.19589227 -0.05179466

