17
Total Energy                               R     -2.142406767711811E+02
N   0.00000000  0.00000000  0.00000000
C   0.86117157  0.86117157  0.86117157
C  -0.86117157 -0.86117157  0.86117157
C  -0.86117157  0.86117157 -0.86117157
C   0.86117157 -0.86117157 -0.86117157
H  -0.22105758 -1.48392743  1.48392743
H   0.22105758  1.48392743  1.48392743
H   1.48392743  0.22105758  1.48392743
H   1.48392743  1.48392743  0.22105758
H   1.48392743 -0.22105758 -1.48392743
H   1.48392743 -1.48392743 -0.22105758
H   0.22105758 -1.48392743 -1.48392743
H  -1.48392743  1.48392743 -0.22105758
H  -0.22105758  1.48392743 -1.48392743
H  -1.48392743  0.22105758 -1.48392743
H  -1.48392743 -0.22105758  1.48392743
H  -1.48392743 -1.48392743  0.22105758

