42
Total Energy                               R     -1.127364138429585E+03
C  -2.92974730  0.66705337  0.37592162
C  -2.93706900  0.40590181  1.89795516
C  -4.19091589  1.40045130 -0.03918814
N  -2.94218873 -0.69036664 -0.28447152
O   3.75374832  1.79390794  0.93649531
C  -1.62452482  1.33489533 -0.03002862
C  -1.56135016  2.69190890 -0.20542927
C  -0.31639456  3.33731381 -0.35598666
C   0.82239619  1.21862362 -0.11370974
C  -0.43407892  0.55916249 -0.05047918
C  -0.47411046 -0.85757458 -0.01494241
C  -1.75785117 -1.63141053 -0.25096576
C  -1.71635388 -2.32443756 -1.61894434
C  -2.07731084 -2.65262802  0.85884051
O  -3.92410019 -1.06266108 -0.81430470
O   3.09586740 -3.00579429  0.07192374
C   0.69108769 -1.56501730  0.08293035
C   3.13768205 -1.80560952  0.23530644
O   4.25226840 -1.15594985  0.55154745
O   3.88449628  1.20372197 -1.22227398
C   1.94447404 -0.91911013  0.11484605
C   2.01471945  0.45092020 -0.00813401
C   3.31595288  1.20303936 -0.02223222
C   0.84811786  2.62817963 -0.28298593
H  -2.01293675 -0.04645329  2.25414117
H   0.68131162 -2.64766095  0.10908089
H  -2.05391160 -2.20880445  1.85213082
H  -3.04020716  1.38419437  2.36957281
H  -3.78949179 -0.21517817  2.17791643
H  -5.07558298  0.83425776  0.25106956
H  -4.22717739  2.35192956  0.48866951
H  -4.21633380  1.58701529 -1.11402611
H  -2.45890542  3.29664424 -0.19924982
H  -0.29168653  4.41137848 -0.49766452
H   1.79461812  3.15124357 -0.35939587
H   4.99941566 -1.77060564  0.58297623
H  -3.05323337 -3.10431217  0.67551986
H  -1.32118617 -3.43598902  0.80641635
H  -0.86936421 -3.00929516 -1.62038401
H  -2.62463557 -2.90008051 -1.79236177
H  -1.58023335 -1.59545065 -2.41981260
H   4.70828126  1.71396266 -1.19704383

