64
Total Energy                               R     -1.766455258908602E+03
C   1.26326410 -2.07202690 -1.35261774
C   2.01715552 -1.01750031 -2.17806965
C   1.36948518 -3.44368542 -2.03912763
N   1.93108741 -2.14373199 -0.03112794
O   3.18289083 -2.37093689 -0.04709967
C   1.18528399 -2.38480948  1.23002475
C   0.70398129 -3.84953519  1.26696411
C   2.12678540 -2.13916708  2.40559445
C  -0.02989153 -1.47238029  1.24889827
C  -0.74150153 -1.22239032  0.03741900
C  -0.18187500 -1.61978069 -1.20866013
C  -0.92897943 -1.49478835 -2.35364605
C  -2.17921671 -0.87061068 -2.32718044
C  -2.69716945 -0.36044009 -1.16132282
C  -3.90790108  0.49366589 -1.35895071
O  -4.86392878  0.14185483 -2.01666447
O  -3.88804649  1.72889872 -0.85378545
C  -2.02143381 -0.58096315  0.07705948
C  -2.53258835 -0.19626976  1.35715642
C  -3.92279574  0.26896149  1.61524229
O  -4.21452826  1.15717113  2.38742789
O  -4.83779545 -0.45235378  0.96509920
C  -1.76387752 -0.34761484  2.48248523
C  -0.51953917 -0.99170291  2.43369515
H   3.05924910 -1.31172353 -2.30436033
H   1.97494520 -0.04201255 -1.68868707
H   1.56685422 -0.92827252 -3.16697758
H   2.41332482 -3.76207148 -2.05602479
H   1.02332647 -3.37480398 -3.07127444
H   0.77611331 -4.20215312 -1.52789896
H   1.55314276 -4.52311571  1.12769011
H  -0.04252052 -4.05605592  0.49861907
H   0.25114645 -4.05239679  2.23977377
H   3.01609528 -2.75941996  2.31110916
H   1.63369456 -2.41803828  3.33658806
H   2.42940511 -1.09277893  2.47238265
H  -0.53342086 -1.81096280 -3.31122907
H  -2.71295970 -0.72015159 -3.25858096
H  -3.01875640  2.01509502 -0.50942249
H  -5.72246971 -0.10511149  1.14996295
H  -2.15618804 -0.03190660  3.44233888
H   0.00954445 -1.14812386  3.36376328
N   4.34653340  1.79366945  0.13041573
C   5.06111811  0.99071037 -0.90212505
C   3.59584819  0.88042844  1.03842110
C   5.33811893  2.57665204  0.92029755
C   3.39153625  2.72571095 -0.53351205
H   2.84664180  0.34956044  0.45593321
H   5.75262979  0.31459217 -0.40254748
H   4.32920464  0.42527781 -1.47361508
H   5.60512932  1.67002140 -1.55628272
H   3.95116865  3.38787668 -1.19212462
H   2.67666784  2.14113099 -1.10876160
H   2.87887774  3.30162168  0.23297391
H   6.02278746  1.88378597  1.40645784
H   5.88413927  3.23203757  0.24359280
H   4.80679370  3.16562373  1.66571062
H   4.29929424  0.17742007  1.48092312
H   3.11717406  1.47480078  1.81454630
B  -0.28395877  2.68634263 -0.22371499
F  -0.21343297  1.94724396 -1.41328137
F   0.29266617  3.95319222 -0.40774959
F  -1.66226133  2.86548070  0.13097766
F   0.36100952  2.00598590  0.81681871

