51
Total Energy                               R     -1.176816770638626E+03
C  -0.43334592  1.38550497  0.59619306
C   0.10399694  2.43014620 -0.39525222
C  -1.39967707  2.08049666  1.56114154
N  -1.11717740  0.22744718 -0.02859135
O  -1.86507313  0.53449337 -1.16301380
C  -0.12464180 -0.86076836 -0.21640577
C  -0.82428438 -2.20811394 -0.00859489
C   0.55645347 -0.87077921 -1.59490693
C   0.87731293 -0.54405635  0.87836283
C   1.91104232 -1.53589641  1.31020957
N   2.82017045 -1.00248607  2.32382054
C   0.70000437  0.70010392  1.31522858
H  -0.71804050  2.85680316 -0.97524031
H   0.82197201  1.99899055 -1.09575764
H   0.60794488  3.24023381  0.14371621
H  -2.27378571  2.45449466  1.01747609
H  -0.92453763  2.93208774  2.06140442
H  -1.74984651  1.38394627  2.32906520
H  -1.64494708 -2.31096091 -0.72573458
H  -1.24419760 -2.27955420  0.99961188
H  -0.14131769 -3.05159782 -0.15766930
H  -0.20389984 -0.95219357 -2.37481374
H   1.23971925 -1.72124262 -1.68346810
H   1.12948668  0.04015848 -1.77651402
H   2.44157374 -1.89523660  0.41472948
H   1.40850956 -2.41504472  1.73052128
H   3.36552300 -0.25089730  1.91291529
H   3.48708502 -1.72319865  2.57809413
H   1.29610431  1.19790864  2.07460599
N  -4.98458047 -0.19998144 -0.20775417
C  -4.51737270 -1.04401630 -1.34697369
C  -6.40997356 -0.48710125  0.09601503
C  -4.13623600 -0.49415992  0.98455864
C  -4.81421809  1.23714984 -0.57369784
H  -7.01072014 -0.26208854 -0.78424094
H  -4.61795566 -2.09206588 -1.06519305
H  -5.14182189 -0.83006939 -2.21443043
H  -3.47170978 -0.76863472 -1.52746645
H  -3.74957620  1.37660797 -0.79487600
H  -5.43407241  1.44748293 -1.44532735
H  -5.13705291  1.84877656  0.26863765
H  -4.26375069 -1.54457673  1.24696409
H  -3.09409559 -0.28015937  0.72849605
H  -4.47143801  0.13523256  1.80917396
H  -6.50998298 -1.53986340  0.35724315
H  -6.72430075  0.13674831  0.93187017
B   4.91797799  0.16171266 -0.60944815
F   4.12228559 -0.47204239 -1.58355803
F   4.11007768  0.99442437  0.19626715
F   5.53861052 -0.81317748  0.20011636
F   5.90642340  0.94384946 -1.24394045

