51
Total Energy                               R     -1.176537159450080E+03
C   0.16281020  0.29798386  0.74926162
C   0.34188788 -1.18758005  0.42738230
C   1.31383452  0.84710681  1.60013660
N   0.16726746  1.05658605 -0.54710662
O   1.06314384  1.03641309 -1.30759884
C  -1.08969002  1.85070632 -0.77603808
C  -0.68707702  3.32676889 -0.85949473
C  -1.71045360  1.34876961 -2.08349885
C  -1.86784734  1.49143627  0.46757571
C  -3.23743475  2.05341489  0.68653460
N  -3.88014490  1.45913897  1.85123463
C  -1.19701849  0.66377827  1.25912775
H   1.33008738 -1.37962659  0.00557118
H  -0.43176926 -1.53748028 -0.25668716
H   0.25052706 -1.73446573  1.36741665
H   2.27603838  0.63888243  1.13073741
H   1.27614992  0.33784710  2.56462253
H   1.20552140  1.92063680  1.76502988
H  -0.04220637  3.50213658 -1.72248217
H  -0.18426917  3.65138936  0.05332079
H  -1.60035407  3.91026801 -0.98567355
H  -1.03186595  1.52452259 -2.92026097
H  -2.62535268  1.91611172 -2.25754214
H  -1.95862194  0.28855452 -2.01885391
H  -3.81811873  1.92916329 -0.23790915
H  -3.14720818  3.13343753  0.84682797
H  -4.13192686  0.49939424  1.63489753
H  -4.74930553  1.94780870  2.03416255
H  -1.55167383  0.26061607  2.19785518
N   5.39936537 -0.60241483  0.01396002
C   4.97730627 -0.51147369  1.44121486
C   4.32300904 -0.05215972 -0.85858408
C   6.64999930  0.18412416 -0.18560054
C   5.64656574 -2.02961979 -0.34038606
H   3.41983267 -0.63868498 -0.70439757
H   4.80478713  0.53450309  1.68861784
H   4.06198824 -1.08612088  1.57183401
H   5.77108913 -0.91975077  2.06452873
H   6.43320561 -2.41730081  0.30469142
H   4.72571810 -2.59088004 -0.19010751
H   5.95406337 -2.08237078 -1.38331785
H   6.45462638  1.22237217  0.07735717
H   7.42713688 -0.22692534  0.45647359
H   6.94578390  0.10903320 -1.23059944
H   4.15388835  0.98809221 -0.58648398
H   4.64443702 -0.12311501 -1.89630025
B  -3.60691643 -2.07169166 -0.27418323
F  -3.04273929 -2.24951082  1.00498233
F  -2.58434737 -2.06229605 -1.24750115
F  -4.49905877 -3.13022143 -0.54536106
F  -4.30647047 -0.84726072 -0.31590065

