29
Total Energy                               R     -4.837042223941992E+02
C   1.37583685  0.51052141  1.23838296
C   2.11419261  0.02535097  0.00000000
C   1.37583685  0.51052141 -1.23838296
N  -0.75322379  0.20329516 -0.00000000
O  -2.02361205  0.10294549 -0.00000000
C  -0.07612685  0.02043094 -1.31898256
C  -0.82919661  0.86037333 -2.35060302
C  -0.14269080 -1.45906632 -1.72320751
C  -0.14269080 -1.45906632  1.72320751
C  -0.82919661  0.86037333  2.35060302
C  -0.07612685  0.02043094  1.31898256
H   1.88518120  0.19218578 -2.15307584
H   0.48917840 -2.09169068 -1.09755571
H   2.20409972 -1.06576200  0.00000000
H   1.37678061  1.60719509 -1.24036599
H   3.13424346  0.42091507  0.00000000
H   1.37678061  1.60719509  1.24036599
H  -0.89768074  1.90366399 -2.02988833
H  -0.89768074  1.90366399  2.02988833
H  -0.28658666  0.82971858 -3.29958300
H  -1.83829537  0.48280151 -2.52006681
H   0.19378965 -1.56916324 -2.75807461
H  -1.17032056 -1.82521164 -1.65799798
H  -1.17032056 -1.82521164  1.65799798
H  -1.83829537  0.48280151  2.52006681
H   0.19378965 -1.56916324  2.75807461
H  -0.28658666  0.82971858  3.29958300
H   0.48917840 -2.09169068  1.09755571
H   1.88518120  0.19218578  2.15307584

