36
Total Energy                               R     -9.740650826220901E+02
C   1.19593740 -1.39205759  0.00010963
C  -1.63897215 -2.47677875  1.27358296
C  -1.24679455 -2.93237769 -1.13984650
N  -2.34643096 -0.81450600 -0.54745824
O   3.84208789 -2.13841409  0.12293064
C   1.89554297  0.91898491  0.01320779
C   3.64584071 -0.81852182  0.05642522
C   2.21425011 -0.43575311  0.02483885
C  -0.45362031  0.38415279  0.00229952
C  -0.11967458 -0.96937163 -0.02683564
C  -1.35931031 -1.82438909 -0.09162551
C  -1.96144782  0.53285404 -0.03206365
C  -2.45555046  1.57854076 -1.03371427
O  -0.39950102  3.35716892  0.89248868
O  -3.67807217 -1.15780361 -0.27396365
C  -2.50886785  0.87234176  1.36540474
C   0.56632414  1.33891579  0.01933689
C   0.31313523  2.80679837  0.08198143
O   4.56887814 -0.02799625  0.03112276
O   1.00020812  3.47913239 -0.84526336
H  -0.83179876 -3.17430307  1.51627153
H  -2.20894591 -3.44143028 -1.24850216
H  -2.57380930 -3.04141971  1.24177827
H  -0.50511098 -3.68157258 -0.84700697
H  -1.97714755  1.44525999 -2.00753254
H  -0.96007370 -2.52476150 -2.11278608
H  -1.70551993 -1.75027993  2.08386981
H  -2.10574071  0.22209896  2.14273660
H  -2.25744487  1.90054617  1.62748222
H   4.79165249 -2.32050189  0.15000443
H   2.69178438  1.65375059  0.02038916
H   1.43294933 -2.44963829 -0.00939502
H  -3.59600795  0.77443593  1.36818623
H  -3.53519002  1.46371565 -1.16532026
H  -2.27493346  2.59954419 -0.69155794
H   0.85079073  4.42936638 -0.73353897

