36
Total Energy                               R     -9.739513135649609E+02
C   1.11103303 -1.46607574  0.02086163
C  -1.69004932 -2.56696623  1.24595715
C  -1.45873792 -2.75106661 -1.25690709
N  -2.43752780 -0.73696058 -0.23286385
O   3.82938628 -2.28700477  0.04764468
C   2.17449228 -0.56739048  0.03896737
C   3.55914859 -1.10340004  0.05777592
C   1.92589022  0.80204046  0.02382584
C  -0.44808563  0.39163012  0.03826805
C  -0.18047563 -0.97573489  0.00773112
C  -1.43306978 -1.80730941 -0.05777385
C  -1.94388717  0.64586042  0.01680929
C  -2.40668495  1.55036816 -1.12269716
O  -0.35883834  3.37870402  0.72208927
O  -3.67621182 -0.99267522 -0.29860497
C  -2.49304604  1.10946176  1.37106990
C   0.62115851  1.29402871  0.03173074
C   0.44770995  2.77549095  0.05025085
O   4.49562175 -0.15403914  0.08946557
O   1.31703539  3.39084669 -0.75480783
H  -0.90889855 -3.31716944  1.38947447
H  -2.42985115 -3.24627168 -1.32615573
H  -2.65459589 -3.07781851  1.20022420
H  -0.69252134 -3.52015928 -1.13629375
H   1.29697213 -2.53426131  0.00927617
H  -1.26790961 -2.21157920 -2.18730608
H  -1.68626803 -1.89114450  2.10381715
H  -3.58493339  1.08595431  1.34335322
H  -2.14844436  0.45663092  2.17623958
H   5.37131951 -0.56462914  0.10091624
H   2.75401928  1.49815701  0.01898741
H  -2.16962686  2.12727508  1.58023462
H  -1.99023357  1.22272691 -2.07778971
H  -3.49663994  1.52704231 -1.18745411
H  -2.10516562  2.58211203 -0.94162515
H   1.20714909  4.34958296 -0.67736372

