36
Total Energy                               R     -9.635209758995993E+02
C  -1.67772117 -1.19495845  0.49220025
C  -1.37364880 -2.00116796  1.74612284
C  -3.13299282 -1.44001212  0.05300517
N  -1.59060821  0.27806878  0.85847516
O  -1.74274125  0.58124612  1.98704338
C  -1.37239603  1.38497361 -0.15969549
C  -2.76240116  1.72534431 -0.72884987
C  -0.80598004  2.58563078  0.58416535
C  -0.39755891  0.89111002 -1.23364051
C  -0.66850253 -0.51049156 -1.77438675
N   0.32977019 -0.93291412 -2.75689384
C  -0.66559422 -1.49637391 -0.61743728
H  -2.14935067 -1.89030421  2.50393316
H  -0.40704526 -1.72552489  2.17201738
H  -1.33213668 -3.05049550  1.44986932
H  -3.83568992 -1.06168735  0.79749012
H  -3.25105707 -2.52289135 -0.01520011
H  -3.36628664 -1.01131148 -0.91832065
H  -3.48927536  1.87854014  0.07079800
H  -3.13567220  0.97687292 -1.42415458
H  -2.64435051  2.66429264 -1.27251963
H  -1.53118746  3.02557105  1.26894918
H  -0.54619325  3.33341156 -0.16687168
H   0.10033575  2.32090633  1.13263395
H   0.61499828  0.91714973 -0.82206166
H  -0.43774825  1.62525754 -2.04290508
H  -1.63958255 -0.53291923 -2.27419592
H   1.24976699 -0.86322683 -2.32813130
H   0.32819933 -0.27154506 -3.52700256
H   0.33586641 -1.52311962 -0.17715195
H  -0.89434419 -2.50366730 -0.97285362
B   3.07170347  0.01283691  0.33767790
F   2.10001266 -0.28335204  1.31462971
F   4.35670443 -0.23066167  0.86247163
F   2.86638779 -0.80649326 -0.79577463
F   2.96365137  1.36718770 -0.03899676

