44
Total Energy                               R     -7.339630089782595E+02
C  -1.62205742  1.36894621  0.07017797
C  -0.30100157  1.32936113  0.85996612
C  -1.78004479  2.77344435 -0.50824439
N  -1.76436058  0.37439720 -1.01337435
O  -0.67700933  0.33611929 -1.90910708
C  -2.11254945 -0.94421438 -0.43064136
C  -2.96797865 -1.71698719 -1.43788441
C  -0.91534416 -1.83578386 -0.06814680
C  -2.97033043 -0.54237583  0.81059039
O  -2.66315633 -1.25973210  2.00763336
C  -2.80956013  0.98101477  0.95445758
H   0.55590529  1.38030588  0.18586386
H  -0.19514840  0.43584368  1.47781658
H  -0.24835976  2.19229158  1.53128381
H  -0.92969404  3.03564204 -1.14558671
H  -1.83596743  3.51778796  0.29255130
H  -2.69212354  2.84840191 -1.10773835
H  -2.40265614 -1.91764791 -2.35359235
H  -3.86234643 -1.14767578 -1.70774516
H  -3.28797752 -2.67899390 -1.02385331
H  -0.32847849 -2.04480078 -0.96471987
H  -1.26369698 -2.79194481  0.33019616
H  -0.24320164 -1.39408040  0.66722625
H  -4.01509047 -0.79667214  0.62864371
H  -1.76137714 -1.06201850  2.27670498
H  -2.66116441  1.26333983  2.00010652
H  -3.71725392  1.48163206  0.60583739
N   3.74074678 -0.14092726  0.07224518
C   3.46029406  1.31978930  0.17683928
C   4.43024120 -0.42305784 -1.21832102
C   4.61351366 -0.56124564  1.20462328
C   2.45651262 -0.89683941  0.12597927
H   3.78097995 -0.11522687 -2.03595613
H   4.40579954  1.85923601  0.14856347
H   2.83352263  1.61663991 -0.66196203
H   2.94566328  1.51047351  1.11706917
H   1.97803537 -0.69502800  1.08202792
H   1.81976402 -0.56299549 -0.69158747
H   2.67240943 -1.95953091  0.02919790
H   5.54684039 -0.00311413  1.15325433
H   4.09849100 -0.34755691  2.13964435
H   4.80847134 -1.62888480  1.11842957
H   5.36278325  0.13779049 -1.24749364
H   4.63232303 -1.49091036 -1.28086371

