44
Total Energy                               R     -7.338568025542111E+02
C  -1.40220317  1.33648961 -0.06783132
C  -1.89154309  2.29631243  1.01622744
C  -0.13080699  1.87960640 -0.71634955
N  -1.13489490  0.01130650  0.54325899
O  -0.20245405 -0.16307536  1.38786041
C  -1.86060011 -1.12007973 -0.07659796
C  -0.96919398 -1.76919572 -1.14234490
C  -2.25549851 -2.14277865  0.97619920
C  -3.04548773 -0.39070251 -0.74400573
O  -4.21698666 -0.32713131  0.06072439
C  -2.48270731  0.99127291 -1.10793131
H  -1.13036539  2.42154529  1.79068782
H  -2.81063049  1.93989793  1.48777268
H  -2.09321922  3.27472174  0.57349695
H   0.64746717  2.05320234  0.03007967
H  -0.35295179  2.83224466 -1.20420987
H   0.25090360  1.19052581 -1.47336312
H  -0.06688503 -2.17613981 -0.68051566
H  -0.67166182 -1.05644009 -1.91520919
H  -1.50894976 -2.59073929 -1.61958536
H  -1.36650952 -2.62892567  1.38355355
H  -2.88360385 -2.91131597  0.51999657
H  -2.80861089 -1.68928314  1.80038203
H  -3.35874831 -0.93408283 -1.63477002
H  -4.03480218  0.12294003  0.89122147
H  -3.27734208  1.73800412 -1.13308857
H  -2.03899475  0.94575821 -2.10470692
N   3.60597742 -0.12086969 -0.02168117
C   3.26629402  0.46395475  1.30740688
C   3.80722545  0.97742141 -1.00923676
C   4.85574676 -0.92388281  0.09563374
C   2.49148747 -0.99875436 -0.48028131
H   2.88451281  1.55039972 -1.08619456
H   4.09882792  1.08290275  1.63773231
H   2.36691182  1.06739525  1.20560955
H   3.09747936 -0.34805945  2.01237684
H   2.34619133 -1.79114282  0.25163278
H   1.59165534 -0.39669731 -0.56527905
H   2.75535849 -1.42201225 -1.44799324
H   5.66141768 -0.27086093  0.42655788
H   4.69408208 -1.71811088  0.82222274
H   5.09174060 -1.34823083 -0.87871380
H   4.61871500  1.61449582 -0.66166592
H   4.05968297  0.53862090 -1.97308112

