43
Total Energy                               R     -6.586346532632408E+02
C  -1.68463152  1.29153053 -0.07404075
C  -2.57670185  2.03293961  0.92540754
C  -0.43211645  2.10004241 -0.37979460
N  -1.32718088 -0.02888294  0.49586458
O  -0.51892161 -0.15359176  1.46855642
C  -2.06504904 -1.18184114 -0.07680149
C  -1.09678198 -2.03580410 -0.89785513
C  -2.69803736 -2.00378627  1.03810947
C  -3.09881832 -0.47014920 -0.96126044
C  -2.45013644  0.86621883 -1.33205206
H  -2.04908541  2.18367222  1.87094534
H  -3.49675499  1.47888648  1.12884582
H  -2.84600168  3.01277364  0.52293823
H   0.11131372  2.35314731  0.53354706
H  -0.71804389  3.03362446 -0.87141267
H   0.23637195  1.55388715 -1.04946888
H  -0.29113056 -2.42145201 -0.26807213
H  -0.65449716 -1.46194154 -1.71665656
H  -1.63293739 -2.88731101 -1.32466846
H  -1.93691766 -2.47411151  1.66538948
H  -3.31318619 -2.79427960  0.60036966
H  -3.33722832 -1.38082670  1.66921713
H  -4.01784264 -0.30222720 -0.39305552
H  -3.35223718 -1.07007542 -1.83670053
H  -3.18061907  1.62045344 -1.62890222
H  -1.74793110  0.73313210 -2.16014288
N   3.31003012 -0.07803356 -0.03287633
C   2.94837157  0.60901364  1.23979209
C   3.52412448  0.93841848 -1.10142675
C   4.55911375 -0.86605156  0.16370044
C   2.20297496 -0.99227505 -0.43349940
H   2.60491128  1.50741498 -1.23119837
H   3.76932685  1.26357810  1.52757199
H   2.04298069  1.18994016  1.07787995
H   2.77951003 -0.14341272  2.00808158
H   2.04185375 -1.71468258  0.36441758
H   1.30648785 -0.39949587 -0.59192675
H   2.48473076 -1.50160459 -1.35361011
H   5.35953098 -0.18783110  0.45389966
H   4.38843371 -1.60189098  0.94743443
H   4.80890358 -1.36448525 -0.77137618
H   4.33529142  1.59858665 -0.79880342
H   3.78232401  0.42414378 -2.02558591

