36
Total Energy                               R     -9.740619498655126E+02
C   1.86002538 -0.93230863  0.03151284
C   3.33714663 -0.82667873  0.10218257
C   1.24956794 -2.18650478  0.02522489
N  -2.54683797  0.37601251 -0.50466027
O   3.96807298 -1.98279195 -0.11422264
C   1.07441861  0.23552295  0.01227537
C   1.71008546  1.59514901  0.00043576
C  -0.13327000 -2.29909914 -0.00637537
C  -0.31033134  0.11888107 -0.01125191
C  -0.89896896 -1.14625696 -0.02788038
C  -3.02641045 -1.95930456 -1.10812989
C  -1.16312107  2.33125314 -0.98749547
C  -2.39978465 -1.03332669 -0.06461754
C  -2.99123951 -1.38519568  1.31281438
O   2.13959711  1.94132190 -1.21179892
O  -3.79798870  0.93963857 -0.20854674
C  -1.39509265  1.18080347 -0.00609950
C  -1.56487706  1.76399045  1.40897671
O   1.77750035  2.32434027  0.96382115
O   3.93859684  0.20178349  0.34203870
H   4.92193387 -1.84603348 -0.02852699
H   2.53945314  2.82291642 -1.17546710
H  -0.87737576  1.95919654 -1.97441627
H   1.86191151 -3.07885841  0.05023232
H  -2.56795751 -1.81214398 -2.08942228
H  -2.91161699 -3.01014087 -0.82644764
H  -1.66887684  0.99125502  2.17126789
H  -0.69564999  2.37180585  1.66844240
H  -0.39709355  3.02806612 -0.63870657
H  -2.78748290 -2.43590279  1.53872595
H  -0.59974374 -3.27850828 -0.01542546
H  -2.57174682 -0.78388697  2.11969304
H  -4.09718273 -1.75221132 -1.19267375
H  -2.09223253  2.89890626 -1.09052733
H  -4.07469595 -1.24675743  1.30901622
H  -2.44889585  2.40432194  1.44709019

