58
Total Energy                               R     -1.612652422093455E+03
C  -1.34822411  0.22409507  0.98334958
C  -2.40124527 -0.78950431  1.44080613
C  -1.11883199  1.32723991  2.01173398
N  -1.86150029  0.85846660 -0.28987505
O  -2.78585427  1.57618664 -0.31439596
C  -1.08124432  0.48343692 -1.52737433
C  -1.98029137 -0.44654211 -2.35284982
C  -0.72597249  1.75753401 -2.28399359
C   0.07118616 -0.24629982 -0.89621357
C  -0.09017687 -0.41370205  0.46897791
C   0.84267835 -1.10971489  1.21823598
C   1.95877793 -1.63012350  0.57541200
C   2.93123118 -2.38727234  1.43187844
O   2.69935288 -3.48775306  1.87810382
O   4.01983746 -1.68563428  1.72230464
C   2.13839427 -1.44149234 -0.80180619
C   3.33183703 -2.01999511 -1.47348634
O   4.03682677 -2.87201611 -0.97561963
O   3.54907012 -1.51548196 -2.68557169
C   1.18438712 -0.74736925 -1.54314358
H  -3.32359516 -0.27608340  1.71075574
H  -1.99857714 -1.29074319  2.32258674
H  -2.59898473 -1.53375060  0.66904462
H  -2.06200700  1.81200652  2.26677290
H  -0.40594304  2.06842741  1.64682598
H  -0.71136034  0.85699673  2.90805257
H  -2.87077311  0.08723362 -2.68542290
H  -2.26626065 -1.33192483 -1.78434715
H  -1.39978627 -0.75590207 -3.22373697
H  -0.07497258  1.47742705 -3.11346104
H  -0.20183749  2.46878833 -1.64566021
H  -1.62604893  2.22299038 -2.68687748
H   0.71076292 -1.24358955  2.28638841
H   4.60428769 -2.20681067  2.29269311
H   4.31411619 -1.95335055 -3.08432079
H   1.30886805 -0.61199423 -2.61024497
N   3.40932011  2.68143480  0.41440921
C   4.54884812  3.22214375 -0.37848334
C   3.76899949  1.33925212  0.95347492
C   3.09970842  3.60489439  1.54216617
C   2.20926988  2.55171868 -0.45821839
H   3.97840090  0.67483984  0.11759125
H   5.41548856  3.31689704  0.27333806
H   4.76501725  2.53307871 -1.19292245
H   4.26876149  4.19629265 -0.77535159
H   1.94566658  3.53764539 -0.83758440
H   2.44450473  1.88137065 -1.28279099
H   1.39413146  2.14633810  0.13824026
H   3.97454320  3.67767297  2.18581231
H   2.84947421  4.58278965  1.13415282
H   2.25454412  3.20328604  2.09891199
H   4.64967168  1.44031986  1.58529526
H   2.92901906  0.96414172  1.53437408
B  -5.83640077 -0.30555218  0.20562203
F  -4.86153392 -0.25904364 -0.81281655
F  -5.74099810 -1.53391138  0.89147918
F  -5.62364274  0.75641333  1.10993735
F  -7.11934736 -0.18436357 -0.36741438

