42
Total Energy                               R     -1.127376962524488E+03
C   2.45384775 -1.45070720 -0.09857064
C   3.77638568 -2.12115295 -0.18499596
C   1.28336715 -2.16288560 -0.07410522
N   0.05574349  2.71614461 -0.30538615
O   3.69647792 -3.45131321 -0.22173427
C   2.43282671 -0.03880636 -0.00036871
C   0.89542165  2.27711783  1.94634075
C   2.46826225  2.89548983  0.08328805
C   1.24826576  0.63755044  0.08351887
C   0.01831620 -0.07077472  0.01050270
C   0.04179316 -1.48820061 -0.01389766
C  -1.17199658 -2.20859648  0.02609466
C  -2.36667249 -1.53592483  0.07847390
C  -3.66624894 -2.25273416  0.14666700
O  -4.74286163 -1.69605290  0.21303217
O  -3.54130310 -3.57976567  0.12898202
C  -2.39040099 -0.12467122  0.02445532
C  -1.22989759  0.60087936 -0.03571444
C  -1.87769840  2.31489993 -1.74051098
C  -1.32290880  2.08754140 -0.32881139
C  -2.15016107  2.87827228  0.70385705
O   0.20084169  3.74221489 -0.86131339
O   4.83409949 -1.52659135 -0.22060232
C   1.22047323  2.11391475  0.44556587
H   4.58559847 -3.82864209 -0.27704831
H   3.37915595  0.48351741  0.04369973
H   1.28655617 -3.24581403 -0.10420618
H   0.05278841  1.66523842  2.26455646
H  -3.35342892  0.37083257 -0.00949323
H  -3.18694121  2.55725257  0.60405031
H   1.78277003  1.93963227  2.48380667
H  -1.82338384  2.69611227  1.72558770
H   0.70975516  3.32446556  2.18975947
H   3.29934685  2.51336309  0.67418093
H   2.34723375  3.94831955  0.33695145
H   2.71117937  2.80329248 -0.97654577
H  -1.13687638 -3.29132911  0.01966100
H  -4.41617740 -3.99034944  0.17441494
H  -2.87085037  1.86925294 -1.78178732
H  -1.24606281  1.83363599 -2.48934896
H  -1.96823305  3.37822865 -1.95900380
H  -2.09851761  3.94477432  0.48081921

