30
Total Energy                               R     -6.075935789314760E+02
C  -2.04264603  1.36611825 -0.00098666
C  -2.09727377  2.20908201  1.27361073
C  -2.07175319  2.24930142 -1.24798656
N  -3.18027108  0.41514983 -0.02733321
O  -4.38223337  0.80622888 -0.02861118
C  -2.81892766 -1.02297205 -0.00121769
C  -3.35905354 -1.67280904  1.27346258
C  -3.36240424 -1.71994689 -1.24825833
C  -1.31524874 -0.92234653 -0.00235690
C  -0.88647536  0.39845467 -0.00212523
C   0.46506903  0.71360778 -0.00126856
C   1.37660601 -0.33690394 -0.00070682
I   3.44095329  0.09610142 -0.00013780
C   0.96389727 -1.66767036 -0.00089876
C  -0.39644188 -1.96150209 -0.00167498
H  -3.00665884  2.81469107  1.28536270
H  -1.23604221  2.88098130  1.31249807
H  -2.08461865  1.57519046  2.16380388
H  -2.97979157  2.85693919 -1.25791862
H  -2.04269212  1.64434914 -2.15771823
H  -1.20940473  2.92088468 -1.24874269
H  -4.45082273 -1.62993096  1.28526912
H  -2.97712860 -1.16654437  2.16357045
H  -3.05564800 -2.72211380  1.31292341
H  -4.45410497 -1.67591393 -1.25979199
H  -3.06122931 -2.77060607 -1.24762142
H  -2.98125935 -1.24912149 -2.15791945
H   0.79159753  1.74781002 -0.00123912
H   1.68822535 -2.47393261 -0.00063899
H  -0.72326882 -2.99641697 -0.00186886

