30
Total Energy                               R     -6.076808323722295E+02
C   2.07245431  1.32510225 -0.05388107
C   1.94602068  2.45395372 -1.07808644
C   2.26015834  1.94676840  1.34108752
N   3.15544844  0.39681304 -0.48340566
O   4.43295594  0.81188380 -0.12681813
C   2.81739434 -0.98440657 -0.04003922
C   3.37639905 -1.98349175 -1.05403593
C   3.33404378 -1.36440793  1.35868123
C   1.31059502 -0.92823746 -0.05008154
C   0.88363215  0.39610803 -0.05962209
C  -0.46749869  0.71240193 -0.04338787
C  -1.38230453 -0.33851634 -0.01540782
I  -3.44969119  0.10145115  0.01059349
C  -0.97503371 -1.66891705 -0.00552108
C   0.38865031 -1.96392141 -0.02371676
H   2.88030113  3.02187334 -1.11576461
H   1.13952189  3.14789142 -0.81823841
H   1.74861963  2.05244418 -2.07639840
H   3.21916726  2.46755689  1.37818080
H   2.24930156  1.19922563  2.13636747
H   1.45937791  2.66471864  1.54708508
H   4.46634618 -1.89633109 -1.09292363
H   2.98123906 -1.78415343 -2.05452939
H   3.12945443 -3.01571274 -0.78383109
H   4.41600748 -1.22049876  1.39370359
H   3.10879707 -2.41405824  1.57450805
H   2.88567293 -0.75881350  2.14843966
H  -0.79732155  1.74600576 -0.05253120
H  -1.70186739 -2.47312123  0.01450919
H   0.71016253 -3.00131458 -0.01758078

