53
Total Energy                               R     -1.188194423745106E+03
C  -0.08308992 -1.47278525  0.78344425
C  -0.80257548 -2.23783297 -0.33065691
C   0.09484523 -2.34838600  2.02067569
N  -0.83051271 -0.24606230  1.13432599
O  -2.01108490 -0.29236031  1.59004011
C  -0.23927199  1.02470834  0.63138416
C  -1.06682535  1.50348550 -0.56736258
C  -0.23683391  2.05087525  1.76123205
C   1.13874883  0.53128884  0.23243641
C   1.20647680 -0.85810876  0.30782615
C   2.35980430 -1.55183128 -0.00843591
C   3.49221498 -0.83515381 -0.38885710
C   4.76607907 -1.51274160 -0.73987579
O   5.76771123 -0.93276605 -1.10613641
O   4.71182082 -2.83969298 -0.61182847
C   3.45362402  0.55535388 -0.42590483
C   2.28389244  1.25025110 -0.12703040
C   2.32473386  2.73847357 -0.22207002
O   1.47149548  3.43169864 -0.72924812
O   3.44426104  3.24131986  0.30222045
H  -1.77615711 -2.58877505  0.01944290
H  -0.20542901 -3.10714990 -0.61583012
H  -0.94779227 -1.61042100 -1.21274815
H  -0.87821855 -2.67600026  2.39337345
H   0.61621022 -1.80869424  2.81432573
H   0.67610522 -3.23634790  1.76236024
H  -2.09619584  1.68176430 -0.25006482
H  -1.06960083  0.75644110 -1.36389271
H  -0.65524075  2.43251245 -0.95751283
H  -1.25783925  2.20074744  2.11884848
H   0.13630199  3.01197735  1.40731432
H   0.38316898  1.71595446  2.59570813
H   2.37973374 -2.63360968  0.04894763
H   5.56900641 -3.22238294 -0.84652249
H   4.34589151  1.10276184 -0.70298231
H   3.45501693  4.20188283  0.18272799
N  -5.16616261 -0.19422004 -0.66412874
C  -3.87920971 -0.62780062 -1.27951748
C  -6.24015366 -0.19401323 -1.69622293
C  -5.52623900 -1.13769252  0.43270901
C  -5.01188597  1.17880367 -0.10360883
H  -5.96392993  0.50089362 -2.48733836
H  -4.00406442 -1.63417367 -1.67564727
H  -3.62292505  0.06399744 -2.07979897
H  -3.11547360 -0.61628581 -0.50718878
H  -4.23824819  1.15800693  0.66185330
H  -4.73000126  1.85511199 -0.90864718
H  -5.96191192  1.48629073  0.33032539
H  -5.64580637 -2.13417899  0.01122692
H  -4.72518137 -1.13516088  1.17010920
H  -6.45850261 -0.80688974  0.88706267
H  -6.33834392 -1.20106942 -2.09775476
H  -7.17348198  0.11781543 -1.23044847

