55
Total Energy                               R     -1.291619247126766E+03
C   0.15655197 -1.17695902 -1.33736976
C   0.13966420 -1.70553650 -2.77131558
C   0.64771616  0.28193346 -1.36107309
N   0.92686643 -2.11213204 -0.47277110
O   2.31593991 -1.91166905 -0.51932964
C   0.35975767 -2.10370362  0.90349006
C   0.53593291 -3.48411841  1.53491916
C   0.93530019 -1.04875811  1.86596901
C  -1.08118656 -1.77428244  0.60575930
C  -1.19433233 -1.24258924 -0.67356532
C  -2.41484031 -0.79635693 -1.15194962
C  -3.50793894 -0.89456774 -0.30577719
N  -4.78286821 -0.31999387 -0.74522067
C  -3.42427281 -1.43273788  0.96815950
C  -2.19086623 -1.88422394  1.43037391
H   1.15776992 -1.73633320 -3.17122409
H  -0.45534146 -1.05907760 -3.42370776
H  -0.27728178 -2.71523266 -2.81280744
H   1.66803791  0.33970669 -1.74589949
H   0.62317619  0.74817279 -0.37585095
H   0.00431079  0.87051770 -2.02140025
H   1.60024270 -3.72048035  1.62918233
H   0.06413387 -4.25822279  0.92402582
H   0.09699617 -3.51988612  2.53661661
H   2.00387123 -1.20982770  2.02750094
H   0.43337344 -1.13084328  2.83465282
H   0.79027719 -0.02953801  1.50519834
H  -2.51696403 -0.36006671 -2.14071330
H  -4.80608653  0.67689261 -0.49189685
H  -5.58060132 -0.77445098 -0.29920831
H  -4.90715727 -0.39284574 -1.75557711
H  -4.30688631 -1.48695421  1.59676775
H  -2.10818704 -2.30054749  2.42906183
N   4.75160482  1.19849648  0.09413080
C   5.38200243  0.01547265  0.74631750
C   5.59799664  2.40325629  0.31872661
C   4.62359596  0.94471183 -1.36984611
C   3.39856244  1.41885152  0.68098534
H   5.67939198  2.57932383  1.38998592
H   6.36243107 -0.14797956  0.30212197
H   5.48083877  0.21639394  1.81175020
H   4.74405027 -0.85217597  0.58455432
H   2.80440721  0.52624920  0.50592735
H   3.50736934  1.60036106  1.74907796
H   2.94216668  2.28011354  0.19625684
H   5.61964084  0.80214925 -1.78588770
H   4.02221451  0.04918123 -1.51660384
H   4.14212763  1.80381581 -1.83348433
H   6.58348177  2.22456419 -0.10807297
H   5.12743707  3.25630900 -0.16705883
B  -2.74316782  2.59987536  0.31936291
F  -1.89715715  1.81500330  1.11877020
F  -2.69594880  3.93911881  0.74411229
F  -2.36115660  2.51011308 -1.02919610
F  -4.08595998  2.12773610  0.44950686

