57
Total Energy                               R     -1.499853240166897E+03
C   1.36870674 -1.32560974 -1.04364538
C   1.89681840 -0.71150101 -2.34552880
C   2.15177545 -2.63969552 -0.86909472
N   1.62858717 -0.36599678  0.07491802
O   1.11228713  0.90475977 -0.29272968
C   1.00462292 -0.72778112  1.37255411
C   1.60374487 -2.00036930  2.00579144
C   1.32896779  0.37662066  2.38917393
C  -0.54487498 -0.94548342  1.22152532
C  -1.35990129  0.32462675  1.11414654
O  -1.52826629  1.09810377  2.04195607
O  -1.99799613  0.49008748 -0.04496872
C  -0.83185876 -1.95574633  0.09230633
C  -2.31407117 -2.22455587 -0.02234231
O  -3.07272409 -2.26790953  0.92649867
O  -2.73081775 -2.47757769 -1.26495626
C  -0.13700918 -1.60741623 -1.22545133
H   2.97556552 -0.53760781 -2.28375076
H   1.40889761  0.23124603 -2.58581061
H   1.72065602 -1.40669381 -3.17200881
H   3.16511949 -2.44148282 -0.50941244
H   2.23611955 -3.13394738 -1.84084227
H   1.68867514 -3.35866233 -0.19676085
H   2.68905643 -2.00796201  1.88389349
H   1.21288297 -2.93842789  1.62019965
H   1.38989333 -1.99146478  3.07760703
H   2.40164774  0.35952252  2.60356470
H   0.80335862  0.18824155  3.32857619
H   1.06662968  1.37029105  2.03910529
H  -0.87644896 -1.38082751  2.16851614
H  -2.61164604  1.24632896  0.01495073
H  -0.44665944 -2.92378948  0.43499031
H  -3.67850847 -2.67259172 -1.24578375
H  -0.61308349 -0.73312138 -1.67106522
H  -0.25510705 -2.43277569 -1.93227384
N   5.35109409  1.36603940 -0.27378229
C   4.40987978  1.33873818  0.88317952
C   4.69410839  2.05200740 -1.42198730
C   6.59329695  2.09746940  0.09824862
C   5.69423429 -0.03266387 -0.65712959
H   3.77052697  1.52808306 -1.66041754
H   4.15080279  2.36353863  1.14522181
H   3.52137453  0.77643477  0.58982437
H   4.90808515  0.85251063  1.72113409
H   6.17345035 -0.51862201  0.19109209
H   4.77832763 -0.55868839 -0.91982530
H   6.37287205 -0.00693684 -1.50816201
H   6.32847895  3.11337540  0.38609196
H   7.06578553  1.58354859  0.93354773
H   7.26300855  2.11284068 -0.76008994
H   4.47618607  3.07925889 -1.13468521
H   5.37107429  2.03524398 -2.27476378
B  -5.25661483  1.62969770 -0.43103484
F  -5.24478094  0.34833999  0.14421300
F  -5.32596526  1.52842334 -1.83006211
F  -6.34417704  2.37095699  0.05589019
F  -4.04532346  2.30370190 -0.07807644

