57
Total Energy                               R     -1.499561564100231E+03
C  -2.13417714 -1.82035988 -0.91750927
C  -1.24366788 -2.38202394 -2.01902427
C  -3.27015175 -2.80858324 -0.58821755
N  -1.28703304 -1.75743249  0.34811167
O  -0.46018348 -2.58325708  0.49331422
C  -1.51395097 -0.78302005  1.48906929
C  -2.60534014 -1.41044696  2.37836854
C  -0.21981580 -0.68339628  2.29081694
C  -1.96169427  0.57614107  0.91900003
C  -0.78074050  1.30346024  0.30081716
O  -0.68255191  2.56126567  0.69151785
O  -0.02573828  0.77549357 -0.48765015
C  -3.09905420  0.41786176 -0.11799000
C  -3.62581893  1.78886819 -0.49392141
O  -4.32011185  2.45028938  0.24605087
O  -3.24082648  2.20647554 -1.69541618
C  -2.66006004 -0.43229511 -1.30268784
H  -0.98263388 -3.42500104 -1.84307433
H  -0.33316177 -1.78868387 -2.12772021
H  -1.80914695 -2.32130975 -2.95023209
H  -2.87247934 -3.73935450 -0.18091992
H  -3.76804321 -3.02618249 -1.53448631
H  -4.00520519 -2.39226700  0.09833974
H  -2.32914358 -2.43131022  2.64495328
H  -3.59423573 -1.41074654  1.92678230
H  -2.64129646 -0.80969970  3.28806261
H  -0.02678097 -1.60395272  2.83991613
H  -0.34996233  0.12401307  3.01344321
H   0.64358111 -0.45778814  1.66475753
H  -2.32941617  1.15348145  1.76774868
H   0.10261917  2.98340777  0.28231846
H  -3.93463053 -0.05887563  0.39648810
H  -3.59717349  3.09142440 -1.86468505
H  -1.89440137  0.08093515 -1.88186754
H  -3.50742566 -0.60096104 -1.96931581
N   3.27504181 -2.26526936 -0.19511159
C   2.78014744 -3.44424021 -0.96071858
C   4.73999837 -2.10306217 -0.41624565
C   2.56452933 -1.04038708 -0.66020012
C   3.01131591 -2.46891254  1.25813343
H   5.24861297 -3.00140707 -0.07077441
H   2.97599594 -3.28072203 -2.01904662
H   3.30547862 -4.33257881 -0.61388962
H   1.71018435 -3.54822619 -0.78830141
H   1.94233097 -2.60622893  1.40458004
H   3.55277443 -3.35351061  1.58977308
H   3.35626798 -1.59097798  1.80158792
H   2.78226967 -0.89034936 -1.71620012
H   1.49873853 -1.18394925 -0.51475470
H   2.91210684 -0.19054314 -0.07778674
H   4.91764972 -1.95504982 -1.48013657
H   5.08313384 -1.23607041  0.14580466
B   2.79640045  2.92637220 -0.07826739
F   1.59698883  3.70237957 -0.20911843
F   2.99216877  2.19937237 -1.26093739
F   3.87180104  3.79887887  0.14032241
F   2.64920898  2.05378884  1.01287729

