57
Total Energy                               R     -1.499750905206608E+03
C   1.55428842 -1.34060024  1.55250232
C   0.34411520 -1.39877501  2.48551176
C   2.65563037 -2.27071519  2.07880499
N   1.11777941 -1.81850530  0.20538869
O   0.45528626 -2.90793254  0.18529831
C   1.76862631 -1.43429777 -1.07855415
C   2.99450829 -2.33103443 -1.31380847
C   0.77879452 -1.67109833 -2.22343352
C   2.20761543  0.05109922 -1.05160262
C   1.08359423  1.02465985 -1.36516358
O   1.15876069  1.85483337 -2.25047807
O   0.02561888  0.89660160 -0.58622910
C   2.92465387  0.39778832  0.27683003
C   3.44482289  1.81636762  0.21577304
O   4.51870216  2.11785935 -0.26066261
O   2.59694181  2.71979918  0.70620945
C   2.03857073  0.11443737  1.48351909
H   0.02881086 -2.42463877  2.67912259
H  -0.49936289 -0.84241268  2.06962092
H   0.61728707 -0.94195582  3.43992490
H   2.33650329 -3.31353047  2.01692841
H   2.85086777 -2.03448278  3.12775615
H   3.59212805 -2.16135530  1.52979919
H   2.70266084 -3.37902346 -1.22000774
H   3.81006122 -2.13896687 -0.61718488
H   3.36833925 -2.16863035 -2.32730416
H   0.61933952 -2.73681397 -2.38490870
H   1.19828449 -1.25085555 -3.14092841
H  -0.18969867 -1.20459477 -2.03844741
H   2.92281885  0.17415057 -1.86641447
H  -0.67392466  1.54037025 -0.81955416
H   3.82130183 -0.22205119  0.31633578
H   2.96742678  3.60811107  0.60150395
H   1.17642106  0.77950151  1.47890836
H   2.59462435  0.31851062  2.40179426
N  -3.23032384 -2.15293918 -0.16513041
C  -2.73926803 -2.98917505 -1.29756365
C  -2.51862907 -0.84382808 -0.17675287
C  -4.69552994 -1.92559780 -0.30953596
C  -2.95593721 -2.85181197  1.12254291
H  -1.45470745 -1.03082469 -0.06938967
H  -2.93137682 -2.46014121 -2.22969145
H  -1.67110004 -3.15415062 -1.16970063
H  -3.27231568 -3.93849096 -1.28796238
H  -3.49310325 -3.79881957  1.12767668
H  -1.88466285 -3.02591781  1.20138911
H  -3.29777677 -2.22157147  1.94182218
H  -4.87766247 -1.41244676 -1.25240363
H  -5.20202702 -2.88952582 -0.30176132
H  -5.03843348 -1.31311651  0.52257256
H  -2.72181889 -0.34687850 -1.12345034
H  -2.88219695 -0.23977895  0.65186544
B  -2.52068673  3.14302223  0.30130092
F  -1.37010842  3.43971482  1.04929744
F  -3.35363314  2.27351352  1.02184127
F  -3.21048803  4.31964344 -0.02279575
F  -2.11944564  2.49840957 -0.91431445

